# vtk DataFile Version 2.0
opensees model
ASCII
DATASET UNSTRUCTURED_GRID
POINTS 34643 float
-50.00000000000000000000 -30.00000000000000000000 0.0
-50.00000000000000000000 -29.50000000000000000000 0.0
-49.50000000000000000000 -30.00000000000000000000 0.0
-49.50000000000000000000 -29.50000000000000000000 0.0
-49.00000000000000000000 -30.00000000000000000000 0.0
-50.00000000000000000000 -29.00000000000000000000 0.0
-49.50000000000000000000 -29.00000000000000000000 0.0
-49.00000000000000000000 -29.50000000000000000000 0.0
-49.00000000000000000000 -29.00000000000000000000 0.0
-50.00000000000000000000 -28.50000000000000000000 0.0
-48.50000000000000000000 -30.00000000000000000000 0.0
-49.50099999999999766942 -28.50000000000000000000 0.0
-48.49900000000000233058 -29.50100000000000122213 0.0
-49.00200000000000244427 -28.50000000000000000000 0.0
-48.49699999999999988631 -29.00100000000000122213 0.0
-50.00000000000000000000 -28.00000000000000000000 0.0
-48.00000000000000000000 -30.00000000000000000000 0.0
-49.50200000000000244427 -28.00000000000000000000 0.0
-47.99699999999999988631 -29.50100000000000122213 0.0
-48.50000000000000000000 -28.50000000000000000000 0.0
-49.00399999999999778311 -28.00000000000000000000 0.0
-47.99499999999999744205 -29.00199999999999889155 0.0
-48.50300000000000011369 -27.99800000000000110845 0.0
-50.00000000000000000000 -27.50000000000000000000 0.0
-47.50000000000000000000 -30.00000000000000000000 0.0
-47.99799999999999755573 -28.49899999999999877787 0.0
-47.49699999999999988631 -29.49899999999999877787 0.0
-49.50200000000000244427 -27.49500000000000099476 0.0
-47.49499999999999744205 -28.99800000000000110845 0.0
-49.00399999999999778311 -27.48999999999999843681 0.0
-48.00099999999999766942 -27.99599999999999866418 0.0
-47.49600000000000221689 -28.49399999999999977263 0.0
-48.50399999999999778311 -27.48999999999999843681 0.0
-47.00000000000000000000 -30.00000000000000000000 0.0
-50.00000000000000000000 -27.00000000000000000000 0.0
-46.99699999999999988631 -29.49699999999999988631 0.0
-49.50200000000000244427 -26.98999999999999843681 0.0
-46.99499999999999744205 -28.99399999999999977263 0.0
-49.00399999999999778311 -26.98000000000000042633 0.0
-48.00399999999999778311 -27.48900000000000076739 0.0
-47.49699999999999988631 -27.98999999999999843681 0.0
-46.99399999999999977263 -28.48900000000000076739 0.0
-48.50500000000000255795 -26.98100000000000164846 0.0
-46.50000000000000000000 -30.00000000000000000000 0.0
-50.00000000000000000000 -26.50000000000000000000 0.0
-46.49699999999999988631 -29.49599999999999866418 0.0
-47.50200000000000244427 -27.48799999999999954525 0.0
-49.50399999999999778311 -26.48900000000000076739 0.0
-48.00600000000000022737 -26.98199999999999931788 0.0
-46.99199999999999732836 -27.98499999999999943157 0.0
-46.49399999999999977263 -28.99200000000000088107 0.0
-49.00800000000000267164 -26.47800000000000153477 0.0
-46.49399999999999977263 -28.48799999999999954525 0.0
-48.50999999999999801048 -26.47800000000000153477 0.0
-47.50699999999999789679 -26.98499999999999943157 0.0
-47.00099999999999766942 -27.48600000000000065370 0.0
-46.00000000000000000000 -30.00000000000000000000 0.0
-50.00000000000000000000 -26.00000000000000000000 0.0
-45.99600000000000221689 -29.49500000000000099476 0.0
-49.50500000000000255795 -25.98799999999999954525 0.0
-48.01200000000000045475 -26.47899999999999920419 0.0
-46.49399999999999977263 -27.98400000000000176215 0.0
-45.99199999999999732836 -28.98999999999999843681 0.0
-49.01100000000000278533 -25.97500000000000142109 0.0
-47.00900000000000034106 -26.98699999999999832312 0.0
-45.99399999999999977263 -28.48600000000000065370 0.0
-48.51400000000000289901 -25.97500000000000142109 0.0
-47.51500000000000056843 -26.48499999999999943157 0.0
-46.50099999999999766942 -27.48499999999999943157 0.0
-45.99600000000000221689 -27.98300000000000054001 0.0
-48.01800000000000068212 -25.97599999999999909051 0.0
-45.50000000000000000000 -30.00000000000000000000 0.0
-50.00000000000000000000 -25.50000000000000000000 0.0
-45.49600000000000221689 -29.49399999999999977263 0.0
-49.50699999999999789679 -25.48900000000000076739 0.0
-47.01899999999999835154 -26.49200000000000088107 0.0
-46.50800000000000267164 -26.98699999999999832312 0.0
-45.49199999999999732836 -28.98900000000000076739 0.0
-49.01400000000000289901 -25.47700000000000031264 0.0
-47.52300000000000324007 -25.98600000000000065370 0.0
-46.00200000000000244427 -27.48400000000000176215 0.0
-45.49499999999999744205 -28.48799999999999954525 0.0
-48.52000000000000312639 -25.47700000000000031264 0.0
-45.49799999999999755573 -27.98699999999999832312 0.0
-48.02499999999999857891 -25.47800000000000153477 0.0
-46.52000000000000312639 -26.49299999999999855049 0.0
-47.02900000000000346745 -25.99699999999999988631 0.0
-45.00000000000000000000 -30.00000000000000000000 0.0
-50.00000000000000000000 -25.00000000000000000000 0.0
-46.00800000000000267164 -26.98600000000000065370 0.0
-44.99600000000000221689 -29.49399999999999977263 0.0
-49.50900000000000034106 -24.98900000000000076739 0.0
-44.99099999999999965894 -28.98799999999999954525 0.0
-49.01800000000000068212 -24.97899999999999920419 0.0
-47.53199999999999647571 -25.48799999999999954525 0.0
-45.50399999999999778311 -27.48900000000000076739 0.0
-44.99499999999999744205 -28.48999999999999843681 0.0
-48.52499999999999857891 -24.97899999999999920419 0.0
-46.53199999999999647571 -26.00000000000000000000 0.0
-46.02199999999999846523 -26.49399999999999977263 0.0
-47.03900000000000147793 -25.49899999999999877787 0.0
-44.99900000000000233058 -27.99099999999999965894 0.0
-48.03300000000000125056 -24.98000000000000042633 0.0
-45.51100000000000278533 -26.99099999999999965894 0.0
-50.00000000000000000000 -24.50000000000000000000 0.0
-44.50000000000000000000 -30.00000000000000000000 0.0
-44.49699999999999988631 -29.49599999999999866418 0.0
-49.50999999999999801048 -24.49200000000000088107 0.0
-47.54099999999999681677 -24.98999999999999843681 0.0
-45.00600000000000022737 -27.49399999999999977263 0.0
-44.49399999999999977263 -28.99099999999999965894 0.0
-49.02100000000000079581 -24.48499999999999943157 0.0
-46.03600000000000136424 -26.00300000000000011369 0.0
-46.54599999999999937472 -25.50700000000000144951 0.0
-45.52400000000000090949 -26.50000000000000000000 0.0
-48.53000000000000113687 -24.48499999999999943157 0.0
-44.49499999999999744205 -28.49299999999999855049 0.0
-47.04999999999999715783 -25.00100000000000122213 0.0
-45.01400000000000289901 -26.99699999999999988631 0.0
-48.03999999999999914735 -24.48600000000000065370 0.0
-44.49699999999999988631 -27.99399999999999977263 0.0
-46.05299999999999727152 -25.51500000000000056843 0.0
-45.53699999999999903366 -26.00799999999999911893 0.0
-44.00000000000000000000 -30.00000000000000000000 0.0
-50.00000000000000000000 -24.00000000000000000000 0.0
-43.99799999999999755573 -29.49699999999999988631 0.0
-47.54999999999999715783 -24.49699999999999988631 0.0
-49.51200000000000045475 -23.99500000000000099476 0.0
-44.50200000000000244427 -27.49800000000000110845 0.0
-46.56000000000000227374 -25.01399999999999934630 0.0
-45.02600000000000335376 -26.50499999999999900524 0.0
-43.99600000000000221689 -28.99500000000000099476 0.0
-49.02400000000000090949 -23.99099999999999965894 0.0
-48.53499999999999658939 -23.99200000000000088107 0.0
-43.99600000000000221689 -28.49599999999999866418 0.0
-47.06099999999999994316 -24.50799999999999911893 0.0
-44.50600000000000022737 -27.00199999999999889155 0.0
-45.55599999999999738520 -25.51999999999999957367 0.0
-48.04699999999999704414 -23.99200000000000088107 0.0
-43.99499999999999744205 -27.99699999999999988631 0.0
-46.07099999999999795364 -25.02700000000000102318 0.0
-45.03799999999999670308 -26.01300000000000167688 0.0
-46.57200000000000272848 -24.52199999999999846523 0.0
-47.55899999999999749889 -24.00400000000000133582 0.0
-44.51800000000000068212 -26.51200000000000045475 0.0
-43.50000000000000000000 -30.00000000000000000000 0.0
-50.00000000000000000000 -23.50000000000000000000 0.0
-43.99699999999999988631 -27.50199999999999889155 0.0
-49.51400000000000289901 -23.49899999999999877787 0.0
-43.49600000000000221689 -29.50000000000000000000 0.0
-49.02700000000000102318 -23.49800000000000110845 0.0
-43.49099999999999965894 -29.00000000000000000000 0.0
-45.57399999999999806732 -25.03300000000000125056 0.0
-48.53999999999999914735 -23.50000000000000000000 0.0
-47.07200000000000272848 -24.01500000000000056843 0.0
-45.05799999999999982947 -25.52599999999999980105 0.0
-43.49000000000000198952 -28.50300000000000011369 0.0
-43.99799999999999755573 -27.00700000000000144951 0.0
-46.08299999999999840838 -24.53600000000000136424 0.0
-44.53000000000000113687 -26.02100000000000079581 0.0
-48.05400000000000204636 -23.50300000000000011369 0.0
-43.49000000000000198952 -28.00600000000000022737 0.0
-46.58400000000000318323 -24.03099999999999880629 0.0
-47.56700000000000017053 -23.51399999999999934630 0.0
-44.00999999999999801048 -26.51800000000000068212 0.0
-43.49099999999999965894 -27.51300000000000167688 0.0
-45.07800000000000295586 -25.03900000000000147793 0.0
-43.00000000000000000000 -30.00000000000000000000 0.0
-50.00000000000000000000 -23.00000000000000000000 0.0
-49.51500000000000056843 -23.00199999999999889155 0.0
-45.58899999999999863576 -24.54200000000000159162 0.0
-42.99300000000000210321 -29.50300000000000011369 0.0
-44.54899999999999948841 -25.53200000000000002842 0.0
-49.03099999999999880629 -23.00400000000000133582 0.0
-42.98599999999999710099 -29.00600000000000022737 0.0
-47.08100000000000306954 -23.52599999999999980105 0.0
-46.09499999999999886313 -24.04599999999999937472 0.0
-48.54599999999999937472 -23.00799999999999911893 0.0
-43.49199999999999732836 -27.02100000000000079581 0.0
-42.98499999999999943157 -28.51099999999999923261 0.0
-44.02100000000000079581 -26.03000000000000113687 0.0
-48.06099999999999994316 -23.01300000000000167688 0.0
-42.98400000000000176215 -28.01599999999999823785 0.0
[...]
CELL_DATA 9472
FIELD ele_resp_15.000000 1
Excavacion_plastica 6 9472 float
-143464.342324 -417201.185697 -140166.381968 -3744.621477 0.510771 0.0
-139850.702664 -405457.677515 -136327.095080 -2960.105241 0.508762 0.0
-134124.121173 -393559.666343 -131920.946879 -3154.735035 0.511021 0.0
-130177.220733 -382191.587302 -128092.202027 -2604.282182 0.509958 0.0
-126616.982489 -372352.105823 -124742.272096 -1700.575348 0.509292 0.0
-122106.313117 -360898.389484 -120751.175633 -1224.813222 0.509351 0.0
-116638.078446 -348164.493703 -116200.643037 -1007.364820 0.510513 0.0
-111116.154382 -335212.988855 -111618.625616 -1295.879242 0.511636 0.0
-106301.453683 -322622.145916 -107611.746464 -1509.423087 0.510766 0.0
-101530.044584 -309987.703589 -103615.645567 -1844.302423 0.509664 0.0
-96631.169619 -296772.751802 -99286.950108 -2373.847312 0.508569 0.0
-91975.978917 -283638.309482 -94952.886453 -2916.713354 0.506984 0.0
-87446.051624 -270582.840803 -90636.670560 -3539.226723 0.505091 0.0
-82329.955283 -256933.059766 -85880.042730 -3579.108696 0.504407 0.0
-78150.131265 -244111.467491 -81549.615826 -3900.416427 0.501742 0.0
-73875.383005 -230868.394616 -76957.851711 -4076.210148 0.498896 0.0
-65568.329017 -203148.890527 -67624.212008 -4203.227892 0.489051 0.0
-69848.365235 -217376.714448 -72486.706576 -4273.570889 0.494157 0.0
-132887.944449 -398745.200406 -132940.362103 24.180483 0.517682 0.0
-132886.655130 -398716.560505 -132928.001048 77.394487 0.517670 0.0
-132929.152720 -398761.726359 -132946.945914 140.080591 0.517622 0.0
-132990.583505 -398885.370516 -132988.870775 172.284048 0.517599 0.0
-133053.571827 -399021.887618 -133032.327568 191.725971 0.517587 0.0
-133112.819838 -399167.571786 -133076.241113 206.768365 0.517592 0.0
-133181.162658 -399306.173289 -133118.991956 214.429147 0.517574 0.0
-133244.544364 -399431.691659 -133165.435186 175.346521 0.517542 0.0
-133215.082430 -399374.237260 -133147.329922 116.826069 0.517552 0.0
-133150.417907 -399318.877492 -133117.323850 105.197977 0.517644 0.0
-133099.821293 -399331.339615 -133107.790227 107.965720 0.517761 0.0
-133050.351891 -399303.721948 -133088.518460 151.919310 0.517843 0.0
-133048.356337 -399225.654476 -133068.502703 213.136718 0.517785 0.0
-133110.408579 -399120.090484 -133057.624766 234.591420 0.517569 0.0
-133202.269735 -399056.177457 -133064.611798 183.804129 0.517323 0.0
-133272.364026 -399010.946445 -133070.827618 91.695722 0.517138 0.0
-133336.207621 -398995.276136 -133082.870939 8.208776 0.516991 0.0
-67937.454588 -204867.454926 -68325.233552 -38.043858 0.483079 0.0
-67946.991550 -204974.870150 -68355.098068 -50.116865 0.483211 0.0
-67914.746252 -205009.767879 -68356.332546 26.077544 0.483384 0.0
-67858.593234 -204935.088306 -68324.345256 138.600517 0.483475 0.0
-67802.799526 -204780.464124 -68272.578518 261.200821 0.483440 0.0
-67724.268652 -204518.175857 -68188.508953 371.647563 0.483320 0.0
-67608.043861 -204152.642872 -68069.318772 404.171131 0.483176 0.0
-67549.104358 -203609.375795 -67919.992380 305.494345 0.482532 0.0
-67527.803390 -202887.175757 -67734.580345 268.541062 0.481464 0.0
-67416.875582 -202594.779552 -67634.487098 22.166153 0.481411 0.0
-67455.773050 -201491.735894 -67369.032684 61.230047 0.479502 0.0
-67253.422206 -202941.052501 -67682.736045 8.300659 0.482568 0.0
-67191.382643 -203611.500902 -67836.222763 -192.789252 0.483862 0.0
-67151.277832 -204369.546676 -68017.399081 -78.735796 0.485203 0.0
-67348.729031 -204546.724790 -68112.130632 99.573666 0.484737 0.0
-67615.668631 -204505.747128 -68169.190966 274.988863 0.483672 0.0
-67758.733824 -204561.237183 -68220.468720 379.769133 0.483222 0.0
-67783.773446 -204630.486357 -68246.478992 415.919921 0.483231 0.0
-67763.005553 -204658.333291 -68250.554799 394.144481 0.483345 0.0
-133398.590741 -399012.164966 -133102.688927 -58.418898 0.516873 0.0
-67739.228518 -204671.853787 -68249.859785 344.233085 0.483448 0.0
-133458.183713 -399022.468186 -133120.162975 -88.860718 0.516756 0.0
-67717.899601 -204705.074442 -68255.655195 296.233771 0.483571 0.0
-133541.659254 -399038.055629 -133144.928721 -90.996401 0.516592 0.0
-67676.286060 -204730.544561 -68256.286694 300.732144 0.483753 0.0
-133644.420708 -399058.241225 -133175.665483 -97.079506 0.516392 0.0
-67632.085562 -204754.581900 -68255.069771 329.605933 0.483945 0.0
-133775.402775 -399105.049113 -133220.112972 -116.900192 0.516154 0.0
-67574.943368 -204799.332602 -68259.887664 387.202821 0.484208 0.0
-133922.181068 -399172.825203 -133273.751568 -163.259211 0.515900 0.0
-67531.775348 -204815.079017 -68262.238247 502.946743 0.484371 0.0
-134084.584640 -399257.298225 -133335.470716 -229.524800 0.515627 0.0
-67530.701189 -204632.663318 -68226.548534 660.544669 0.484065 0.0
-134266.270890 -399377.558012 -133410.957226 -314.698307 0.515342 0.0
-67631.244842 -204268.019577 -68169.430355 697.961151 0.483089 0.0
-134459.830702 -399516.449155 -133494.069964 -415.267819 0.515049 0.0
-67738.819359 -204064.687696 -68156.126622 513.479984 0.482324 0.0
-134677.437001 -399704.957029 -133595.598508 -524.649097 0.514746 0.0
-67773.718336 -204382.874640 -68301.122152 242.891167 0.482519 0.0
-134895.427932 -399883.595332 -133694.755816 -656.096346 0.514435 0.0
-67599.407943 -204758.755032 -68335.815229 114.231501 0.483809 0.0
-135090.060685 -400015.958562 -133776.504812 -801.913724 0.514136 0.0
-67471.614621 -205283.068589 -68466.735646 107.854748 0.485018 0.0
-135302.515583 -400201.322144 -133875.959432 -949.719024 0.513845 0.0
-67389.647976 -205783.757052 -68614.912735 130.772676 0.485981 0.0
-135533.704161 -400446.493095 -133995.049314 -1119.855756 0.513563 0.0
-67417.753921 -206377.503471 -68868.013523 154.784298 0.486515 0.0
-67387.843854 -206447.249428 -68897.082943 162.496318 0.486680 0.0
-135776.776626 -400693.154582 -134117.482802 -1282.296869 0.513259 0.0
-67480.489490 -206456.102996 -68980.488940 96.142420 0.486175 0.0
-136060.714425 -400959.034102 -134254.937132 -1424.313083 0.512887 0.0
-67406.517955 -206391.449706 -69013.860430 -102.635242 0.486151 0.0
-136420.898523 -401300.848679 -134430.436800 -1531.863234 0.512417 0.0
-66960.825755 -206056.762209 -68859.429784 -562.815953 0.487192 0.0
-136882.419566 -401820.790716 -134675.802570 -1623.492393 0.511881 0.0
-66503.728945 -205055.552377 -68694.687801 -1610.734271 0.486842 0.0
-137488.579564 -402631.941168 -135030.130183 -1763.638295 0.511284 0.0
-65998.371993 -204483.763971 -68422.623603 -2340.035638 0.487977 0.0
-65748.110675 -204018.244806 -68160.296758 -3202.728276 0.488629 0.0
-138203.984409 -403859.485843 -135515.867563 -2079.253229 0.510807 0.0
-138970.723436 -406401.826083 -136343.137380 -2370.302982 0.511276 0.0
-140006.326179 -407837.865569 -136961.047937 -2219.127280 0.510297 0.0
-141419.430865 -408748.369042 -137541.949977 -2907.386022 0.508193 0.0
-125691.085550 -377200.164763 -125773.130626 23.185438 0.515391 0.0
-75089.417913 -226577.765668 -75539.321006 -23.579351 0.489914 0.0
-118483.378551 -355678.937531 -118609.944800 23.842109 0.512891 0.0
-82266.427661 -248236.434452 -82743.691240 -10.582420 0.495559 0.0
-111238.774040 -334193.480334 -111444.389697 26.251131 0.510228 0.0
-89477.618502 -269805.876409 -89936.485750 7.825295 0.500185 0.0
-103980.349766 -312752.993489 -104284.151519 20.665836 0.507322 0.0
-96723.659820 -291297.849274 -97119.144994 14.213876 0.504013 0.0
-70460.477428 -218666.747887 -73089.779827 -3331.298376 0.493238 0.0
-74852.214472 -232444.105426 -77613.789893 -3318.210530 0.497495 0.0
-83995.549568 -259503.289372 -86761.827762 -2606.467654 0.502658 0.0
-79241.623320 -246119.788482 -82185.418402 -2928.259365 0.500960 0.0
-88278.858376 -272197.025914 -91065.699796 -2280.820261 0.504766 0.0
-92599.689267 -283351.996127 -94876.329785 -2233.768699 0.505150 0.0
-97284.794910 -296078.054696 -99048.773136 -1849.997650 0.506457 0.0
-102320.546679 -309976.244905 -103621.878617 -1580.889542 0.507931 0.0
-106911.296067 -322313.701290 -107562.160414 -1339.026719 0.509143 0.0
-111211.736000 -333427.540782 -111057.169277 -1016.376534 0.509946 0.0
-116293.070052 -345206.204816 -115374.818717 -809.478528 0.508579 0.0
-121015.089932 -356511.176844 -119381.566712 -1068.022310 0.507906 0.0
-125200.323135 -366994.987755 -123048.827705 -1516.996963 0.507764 0.0
-128691.299551 -376122.281996 -126203.395405 -1213.110427 0.507958 0.0
-132585.320022 -385079.700545 -129416.255142 -775.139405 0.507140 0.0
-136862.117238 -395768.892904 -133157.752517 -2018.139484 0.507034 0.0
-125714.017255 -377259.292634 -125792.153114 84.555037 0.515393 0.0
-75141.579905 -226692.596730 -75580.784207 -15.382265 0.489898 0.0
-75120.792546 -226660.646571 -75568.214877 43.795008 0.489923 0.0
-118535.012334 -355858.087907 -118666.293201 72.038390 0.512935 0.0
-111304.440942 -334381.062632 -111506.583470 37.483013 0.510249 0.0
-104054.731332 -312893.455158 -104337.401881 22.848879 0.507273 0.0
-96824.939918 -291456.709212 -97183.253184 16.361950 0.503909 0.0
-82353.754589 -248370.757561 -82798.979428 -0.666885 0.495455 0.0
-89586.597704 -269981.183846 -90004.699974 6.573465 0.500077 0.0
-71043.054412 -220248.440954 -73580.981665 -2480.910896 0.493436 0.0
-125826.557670 -377538.424419 -125887.098174 122.782335 0.515386 0.0
-125967.846204 -377959.456330 -126023.543559 141.528334 0.515438 0.0
-126121.644121 -378442.751207 -126177.402293 167.921065 0.515518 0.0
-126255.948524 -378868.746589 -126311.173698 177.864315 0.515594 0.0
-126385.035131 -379246.771517 -126430.596096 196.528437 0.515642 0.0
-126493.051517 -379488.783740 -126510.289929 200.739157 0.515622 0.0
-126424.374161 -379298.449910 -126436.982303 172.135894 0.515628 0.0
-126268.402708 -378930.167931 -126295.789970 114.687432 0.515678 0.0
-126132.021433 -378729.670222 -126206.245879 115.715623 0.515819 0.0
-126033.031076 -378572.744438 -126151.443878 178.452556 0.515889 0.0
-125992.060737 -378306.227768 -126074.572126 286.345276 0.515754 0.0
-75037.502956 -226421.962169 -75488.144423 142.583620 0.489870 0.0
-72337.079810 -222913.432953 -74536.581176 -1531.877058 0.492676 0.0
-74262.527718 -227250.788982 -75953.229006 -509.517618 0.492496 0.0
-75118.928213 -228656.325772 -76423.360220 -169.792728 0.491784 0.0
-75145.024886 -228456.362413 -76300.615245 89.229533 0.491627 0.0
-74923.393100 -227919.685810 -76040.630377 130.660911 0.491823 0.0
-74755.208166 -227416.972587 -75815.770459 171.402148 0.491847 0.0
-74738.705948 -226865.125158 -75626.868179 195.314595 0.491249 0.0
-74813.835420 -226366.800489 -75486.708478 189.840904 0.490375 0.0
-74909.751890 -225949.238158 -75382.842559 206.159066 0.489514 0.0
-75006.918784 -225704.155243 -75328.997091 298.250975 0.488877 0.0
-75007.436305 -225627.676305 -75298.888344 451.750364 0.488800 0.0
-74957.509487 -225811.694114 -75325.319156 567.615754 0.489258 0.0
-74887.598193 -226066.852947 -75369.123715 568.625228 0.489870 0.0
-74848.871493 -226241.085626 -75400.128847 506.261874 0.490258 0.0
-74839.007492 -226270.061676 -75401.663267 427.557275 0.490340 0.0
-74864.791259 -226263.448179 -75403.238608 367.435062 0.490249 0.0
-74892.033099 -226251.109079 -75405.402064 315.944658 0.490140 0.0
-74902.667691 -226248.559756 -75408.252132 320.893760 0.490098 0.0
-74903.865336 -226229.162713 -75403.748375 357.290277 0.490067 0.0
-74917.556464 -226232.423081 -75408.920420 404.244371 0.490023 0.0
-74928.245247 -226225.230712 -75410.256044 418.207372 0.489975 0.0
-74896.508031 -226070.854366 -75364.359850 367.515561 0.489861 0.0
-74699.168668 -225589.901822 -75196.410495 173.610724 0.489848 0.0
-74308.454987 -224915.186573 -74931.390063 -24.959858 0.490232 0.0
-73884.083241 -224041.990941 -74608.097758 -29.395548 0.490452 0.0
-73644.085719 -222037.984954 -74047.752678 69.494878 0.488393 0.0
-73331.856347 -221364.165154 -73801.354660 -73.714640 0.488507 0.0
-72852.918362 -218875.123818 -73058.088539 153.430859 0.486551 0.0
-73595.666828 -221316.950069 -73854.983366 303.431117 0.487518 0.0
-74116.100696 -221707.549681 -74081.558761 134.023243 0.486269 0.0
-74297.567408 -223908.252099 -74676.833492 161.175165 0.488825 0.0
-74595.121799 -224770.691606 -74966.224889 399.611108 0.489038 0.0
-74945.493626 -226032.039987 -75368.237422 250.019336 0.489631 0.0
-74822.346762 -225491.917611 -75202.876782 355.177686 0.489285 0.0
-134912.941170 -392089.714651 -131750.663937 -1810.142251 0.508076 0.0
-133170.421181 -389178.306978 -130587.182022 -1659.051399 0.509343 0.0
-131438.520408 -384880.790115 -129079.827631 -1768.477661 0.509459 0.0
-130312.140595 -381666.538938 -127994.669883 -1406.098433 0.509164 0.0
-129416.192139 -380184.039974 -127400.058028 -1231.235731 0.509846 0.0
-128935.459566 -379455.835189 -127097.823689 -1133.531756 0.510272 0.0
-128641.819159 -379378.937000 -127005.189040 -1041.148195 0.510846 0.0
-128455.303701 -379440.093200 -126973.849225 -963.239690 0.511303 0.0
-128302.814975 -379432.811572 -126933.906637 -845.494529 0.511628 0.0
-128132.759884 -379369.009044 -126875.442232 -712.618664 0.511944 0.0
-127966.766429 -379314.405871 -126820.293075 -569.922632 0.512259 0.0
-127802.396994 -379257.477495 -126764.968622 -454.624120 0.512570 0.0
-127590.737660 -379079.428623 -126667.541571 -356.900091 0.512883 0.0
-127359.941067 -378800.973156 -126540.228556 -265.837707 0.513153 0.0
-127142.725772 -378521.515664 -126416.060359 -176.619083 0.513393 0.0
-126926.407553 -378264.844890 -126297.813111 -102.220220 0.513652 0.0
-126737.278173 -378056.754343 -126198.508129 -46.191928 0.513892 0.0
-126563.077855 -377879.564877 -126110.660683 -6.271242 0.514126 0.0
-126423.655836 -377799.825083 -126055.870230 14.141425 0.514367 0.0
-126324.748597 -377807.384301 -126033.033225 9.994485 0.514592 0.0
-126271.849664 -377871.230833 -126035.770124 -0.688583 0.514763 0.0
-126267.212669 -377989.507610 -126064.180070 16.798942 0.514874 0.0
-126253.433986 -378098.652446 -126088.021608 70.464198 0.514998 0.0
-126217.941299 -378169.920358 -126096.965414 145.755824 0.515137 0.0
-126173.852525 -378173.289940 -126086.785616 219.906529 0.515238 0.0
-126076.889924 -378171.515918 -126062.101461 300.926399 0.515452 0.0
-129782.174346 -377238.392775 -126755.141798 -1566.923876 0.506548 0.0
-126304.236838 -369492.586530 -123949.205860 -826.819272 0.507469 0.0
-75876.927975 -235041.782641 -78581.113153 -2508.109450 0.497268 0.0
-80717.588293 -247609.218212 -82859.809900 -2342.354273 0.498190 0.0
-85441.191871 -261936.117940 -87597.487923 -1967.593070 0.501435 0.0
-78152.781797 -240084.701969 -80347.660869 -1787.362005 0.496547 0.0
-90409.953779 -275824.490912 -92349.104544 -1819.581831 0.503030 0.0
-121210.825705 -356661.348202 -119468.043494 -715.930709 0.507582 0.0
-116073.481920 -343348.872080 -114855.588500 -843.584173 0.507364 0.0
-111590.055608 -332031.478597 -110905.383534 -938.020074 0.507453 0.0
-107177.203089 -321096.539776 -107018.607067 -1190.118900 0.507863 0.0
-103046.862024 -309827.908327 -103398.928838 -1288.824563 0.506613 0.0
-98480.025284 -296881.722509 -99212.878743 -1285.727917 0.504738 0.0
-118705.112046 -356330.098128 -118824.260355 85.144191 0.512968 0.0
-111471.785339 -334835.388816 -111660.019756 46.721902 0.510276 0.0
-104167.689712 -313145.785245 -104427.220345 8.853395 0.507240 0.0
-96880.791282 -291509.257229 -97209.510886 2.466032 0.503813 0.0
-89592.902360 -269881.873963 -89979.190286 23.684283 0.499945 0.0
-82332.181383 -248245.222549 -82762.269614 46.397165 0.495361 0.0
-82241.594311 -247879.770513 -82648.408148 112.910256 0.495175 0.0
-82142.581322 -247368.466310 -82495.520388 189.502620 0.494827 0.0
-118876.871039 -356865.622406 -118997.456936 99.018909 0.513057 0.0
-119035.830123 -357415.969490 -119170.228576 105.483777 0.513191 0.0
-119193.919634 -357938.876279 -119334.909891 159.122837 0.513304 0.0
-119314.651922 -358285.729310 -119446.219523 166.301145 0.513345 0.0
-119387.300847 -358369.922639 -119478.018769 234.893375 0.513265 0.0
-119366.290831 -358134.234095 -119406.314773 236.975409 0.513117 0.0
-119223.000436 -357758.486223 -119268.866871 147.913966 0.513126 0.0
-118985.910855 -357464.829926 -119127.693960 79.257053 0.513430 0.0
-82032.965533 -246729.939278 -82308.593875 265.712576 0.494345 0.0
-126913.239324 -371773.340444 -124671.644960 -1230.889587 0.508116 0.0
-118785.815799 -357228.334521 -119006.609966 227.541280 0.513707 0.0
-118812.894465 -357078.012322 -118962.798290 380.145976 0.513534 0.0
-119102.816460 -357325.835995 -119107.163097 332.959932 0.513062 0.0
-119248.311693 -357704.964693 -119238.319079 189.862203 0.513063 0.0
-119268.683284 -357876.879401 -119286.390654 186.845518 0.513170 0.0
-119242.850249 -357454.595140 -119174.361330 164.503965 0.512850 0.0
-119156.700218 -357038.938058 -119048.909552 98.576820 0.512676 0.0
-119083.405236 -356739.236949 -118955.660529 86.451870 0.512577 0.0
-119095.799948 -356589.122375 -118921.230564 105.685616 0.512413 0.0
-119196.492499 -356596.433911 -118948.231585 117.781004 0.512184 0.0
-119342.240891 -356706.739436 -119012.245065 88.874066 0.511945 0.0
-119526.683064 -356951.362599 -119119.511398 51.726658 0.511736 0.0
-119730.785566 -357265.406534 -119249.048008 5.318687 0.511545 0.0
-119952.338637 -357580.265936 -119383.151126 -53.251409 0.511315 0.0
-120149.038062 -357817.744535 -119491.695632 -129.009876 0.511073 0.0
-120331.739530 -357992.682313 -119581.105444 -189.915046 0.510808 0.0
-120528.321807 -358158.192764 -119671.628625 -259.587676 0.510502 0.0
-120684.167388 -358238.594040 -119730.690340 -361.121705 0.510216 0.0
-120815.754016 -358249.905031 -119766.414744 -471.542620 0.509923 0.0
-120915.243009 -358179.476552 -119773.679873 -584.820083 0.509632 0.0
-120932.649193 -357927.253675 -119714.975700 -654.452111 0.509366 0.0
-120965.649913 -357473.946163 -119609.899002 -620.865411 0.508880 0.0
-121150.032852 -357009.872292 -119539.976269 -742.665315 0.508038 0.0
-121611.750418 -357893.329276 -119876.269906 -972.053602 0.507779 0.0
-122927.419272 -360451.723650 -120844.785713 -1000.939247 0.507071 0.0
-125109.908622 -366963.971056 -123018.469937 -1221.639172 0.507929 0.0
-81830.943609 -245887.879772 -82046.879900 297.817644 0.493893 0.0
-81391.597858 -245167.055239 -81756.139731 149.568254 0.494360 0.0
-80354.069883 -240534.838212 -80338.223113 230.613417 0.491573 0.0
-79324.537494 -239249.601680 -79761.964582 643.026002 0.493222 0.0
-78889.689574 -236394.462671 -78939.192080 201.324206 0.490776 0.0
-78699.393455 -238228.219643 -79349.395016 -106.405663 0.493898 0.0
-79529.730848 -240337.457523 -80080.984620 -150.280107 0.494010 0.0
-80862.842446 -243969.662717 -81320.696931 29.223835 0.494499 0.0
-81573.517933 -246233.175628 -82060.226582 12.706023 0.495192 0.0
-82202.136710 -247581.043233 -82550.679745 202.981613 0.494947 0.0
-82357.900107 -248495.349814 -82812.506185 391.971217 0.495655 0.0
-82270.557807 -248263.062846 -82729.287143 366.964384 0.495640 0.0
-82208.826048 -247996.471192 -82644.068742 389.150647 0.495500 0.0
-82168.920319 -247938.467808 -82615.533531 364.079655 0.495562 0.0
-82195.002333 -248013.267533 -82636.466480 323.572383 0.495586 0.0
-82247.322389 -248117.651523 -82671.636202 332.720848 0.495564 0.0
-82254.803221 -248134.487577 -82674.359534 370.516046 0.495572 0.0
-82235.654159 -248057.586291 -82646.305635 427.846286 0.495544 0.0
-82256.726892 -247951.441449 -82622.273733 462.564956 0.495347 0.0
-82319.506079 -247818.792325 -82600.825236 474.068147 0.494985 0.0
-82378.369424 -247644.765531 -82569.998800 451.965048 0.494575 0.0
-82417.750971 -247517.277949 -82551.226528 372.690506 0.494273 0.0
-82412.050683 -247467.648895 -82538.564616 295.994899 0.494222 0.0
-82353.583307 -247550.126361 -82553.069369 237.313581 0.494494 0.0
-82279.492840 -247783.290065 -82608.348478 231.282347 0.494994 0.0
-82186.677472 -248154.352801 -82705.286567 242.066132 0.495703 0.0
-82177.375095 -248591.249647 -82846.108924 142.794208 0.496213 0.0
-82419.146073 -249015.750044 -83059.425014 41.428513 0.495872 0.0
-83020.631301 -250478.887339 -83627.637976 216.997162 0.495719 0.0
-120653.203487 -354797.405123 -118862.652170 -965.105341 0.507184 0.0