# vtk DataFile Version 2.0
opensees model
ASCII
DATASET UNSTRUCTURED_GRID
POINTS 34903 float
-50.00000000000000000000 -30.00000000000000000000 0.0
-50.00000000000000000000 -29.50000000000000000000 0.0
-49.50000000000000000000 -30.00000000000000000000 0.0
-49.50000000000000000000 -29.50000000000000000000 0.0
-49.00000000000000000000 -30.00000000000000000000 0.0
-50.00000000000000000000 -29.00000000000000000000 0.0
-49.50000000000000000000 -29.00000000000000000000 0.0
-49.00000000000000000000 -29.50000000000000000000 0.0
-49.00000000000000000000 -29.00000000000000000000 0.0
-50.00000000000000000000 -28.50000000000000000000 0.0
-48.50000000000000000000 -30.00000000000000000000 0.0
-49.50099999999999766942 -28.50000000000000000000 0.0
-48.49900000000000233058 -29.50100000000000122213 0.0
-49.00200000000000244427 -28.50000000000000000000 0.0
-48.49699999999999988631 -29.00100000000000122213 0.0
-50.00000000000000000000 -28.00000000000000000000 0.0
-48.00000000000000000000 -30.00000000000000000000 0.0
-49.50200000000000244427 -28.00000000000000000000 0.0
-47.99699999999999988631 -29.50100000000000122213 0.0
-48.50000000000000000000 -28.50000000000000000000 0.0
-49.00399999999999778311 -28.00000000000000000000 0.0
-47.99499999999999744205 -29.00199999999999889155 0.0
-48.50300000000000011369 -27.99800000000000110845 0.0
-50.00000000000000000000 -27.50000000000000000000 0.0
-47.50000000000000000000 -30.00000000000000000000 0.0
-47.99799999999999755573 -28.49899999999999877787 0.0
-47.49699999999999988631 -29.49899999999999877787 0.0
-49.50200000000000244427 -27.49500000000000099476 0.0
-47.49499999999999744205 -28.99800000000000110845 0.0
-49.00399999999999778311 -27.48999999999999843681 0.0
-48.00099999999999766942 -27.99599999999999866418 0.0
-47.49600000000000221689 -28.49399999999999977263 0.0
-48.50399999999999778311 -27.48999999999999843681 0.0
-47.00000000000000000000 -30.00000000000000000000 0.0
-50.00000000000000000000 -27.00000000000000000000 0.0
-46.99699999999999988631 -29.49699999999999988631 0.0
-49.50200000000000244427 -26.98999999999999843681 0.0
-46.99499999999999744205 -28.99399999999999977263 0.0
-49.00399999999999778311 -26.98000000000000042633 0.0
-48.00399999999999778311 -27.48900000000000076739 0.0
-47.49699999999999988631 -27.98999999999999843681 0.0
-46.99399999999999977263 -28.48900000000000076739 0.0
-48.50500000000000255795 -26.98100000000000164846 0.0
-46.50000000000000000000 -30.00000000000000000000 0.0
-50.00000000000000000000 -26.50000000000000000000 0.0
-46.49699999999999988631 -29.49599999999999866418 0.0
-47.50200000000000244427 -27.48799999999999954525 0.0
-49.50399999999999778311 -26.48900000000000076739 0.0
-48.00600000000000022737 -26.98199999999999931788 0.0
-46.99199999999999732836 -27.98499999999999943157 0.0
-46.49399999999999977263 -28.99200000000000088107 0.0
-49.00800000000000267164 -26.47800000000000153477 0.0
-46.49399999999999977263 -28.48799999999999954525 0.0
-48.50999999999999801048 -26.47800000000000153477 0.0
-47.50699999999999789679 -26.98499999999999943157 0.0
-47.00099999999999766942 -27.48600000000000065370 0.0
-46.00000000000000000000 -30.00000000000000000000 0.0
-50.00000000000000000000 -26.00000000000000000000 0.0
-45.99600000000000221689 -29.49500000000000099476 0.0
-49.50500000000000255795 -25.98799999999999954525 0.0
-48.01200000000000045475 -26.47899999999999920419 0.0
-46.49399999999999977263 -27.98400000000000176215 0.0
-45.99199999999999732836 -28.98999999999999843681 0.0
-49.01100000000000278533 -25.97500000000000142109 0.0
-47.00900000000000034106 -26.98699999999999832312 0.0
-45.99399999999999977263 -28.48600000000000065370 0.0
-48.51400000000000289901 -25.97500000000000142109 0.0
-47.51500000000000056843 -26.48499999999999943157 0.0
-46.50099999999999766942 -27.48499999999999943157 0.0
-45.99600000000000221689 -27.98300000000000054001 0.0
-48.01800000000000068212 -25.97599999999999909051 0.0
-45.50000000000000000000 -30.00000000000000000000 0.0
-50.00000000000000000000 -25.50000000000000000000 0.0
-45.49600000000000221689 -29.49399999999999977263 0.0
-49.50699999999999789679 -25.48900000000000076739 0.0
-47.01899999999999835154 -26.49200000000000088107 0.0
-46.50800000000000267164 -26.98699999999999832312 0.0
-45.49199999999999732836 -28.98900000000000076739 0.0
-49.01400000000000289901 -25.47700000000000031264 0.0
-47.52300000000000324007 -25.98600000000000065370 0.0
-46.00200000000000244427 -27.48400000000000176215 0.0
-45.49499999999999744205 -28.48799999999999954525 0.0
-48.52000000000000312639 -25.47700000000000031264 0.0
-45.49799999999999755573 -27.98699999999999832312 0.0
-48.02499999999999857891 -25.47800000000000153477 0.0
-46.52000000000000312639 -26.49299999999999855049 0.0
-47.02900000000000346745 -25.99699999999999988631 0.0
-45.00000000000000000000 -30.00000000000000000000 0.0
-50.00000000000000000000 -25.00000000000000000000 0.0
-46.00800000000000267164 -26.98600000000000065370 0.0
-44.99600000000000221689 -29.49399999999999977263 0.0
-49.50900000000000034106 -24.98900000000000076739 0.0
-44.99099999999999965894 -28.98799999999999954525 0.0
-49.01800000000000068212 -24.97899999999999920419 0.0
-47.53199999999999647571 -25.48799999999999954525 0.0
-45.50399999999999778311 -27.48900000000000076739 0.0
-44.99499999999999744205 -28.48999999999999843681 0.0
-48.52499999999999857891 -24.97899999999999920419 0.0
-46.53199999999999647571 -26.00000000000000000000 0.0
-46.02199999999999846523 -26.49399999999999977263 0.0
-47.03900000000000147793 -25.49899999999999877787 0.0
-44.99900000000000233058 -27.99099999999999965894 0.0
-48.03300000000000125056 -24.98000000000000042633 0.0
-45.51100000000000278533 -26.99099999999999965894 0.0
-50.00000000000000000000 -24.50000000000000000000 0.0
-44.50000000000000000000 -30.00000000000000000000 0.0
-44.49699999999999988631 -29.49599999999999866418 0.0
-49.50999999999999801048 -24.49200000000000088107 0.0
-47.54099999999999681677 -24.98999999999999843681 0.0
-45.00600000000000022737 -27.49399999999999977263 0.0
-44.49399999999999977263 -28.99099999999999965894 0.0
-49.02100000000000079581 -24.48499999999999943157 0.0
-46.03600000000000136424 -26.00300000000000011369 0.0
-46.54599999999999937472 -25.50700000000000144951 0.0
-45.52400000000000090949 -26.50000000000000000000 0.0
-48.53000000000000113687 -24.48499999999999943157 0.0
-44.49499999999999744205 -28.49299999999999855049 0.0
-47.04999999999999715783 -25.00100000000000122213 0.0
-45.01400000000000289901 -26.99699999999999988631 0.0
-48.03999999999999914735 -24.48600000000000065370 0.0
-44.49699999999999988631 -27.99399999999999977263 0.0
-46.05299999999999727152 -25.51500000000000056843 0.0
-45.53699999999999903366 -26.00799999999999911893 0.0
-44.00000000000000000000 -30.00000000000000000000 0.0
-50.00000000000000000000 -24.00000000000000000000 0.0
-43.99799999999999755573 -29.49699999999999988631 0.0
-47.54999999999999715783 -24.49699999999999988631 0.0
-49.51200000000000045475 -23.99500000000000099476 0.0
-44.50200000000000244427 -27.49800000000000110845 0.0
-46.56000000000000227374 -25.01399999999999934630 0.0
-45.02600000000000335376 -26.50499999999999900524 0.0
-43.99600000000000221689 -28.99500000000000099476 0.0
-49.02400000000000090949 -23.99099999999999965894 0.0
-48.53499999999999658939 -23.99200000000000088107 0.0
-43.99600000000000221689 -28.49599999999999866418 0.0
-47.06099999999999994316 -24.50799999999999911893 0.0
-44.50600000000000022737 -27.00199999999999889155 0.0
-45.55599999999999738520 -25.51999999999999957367 0.0
-48.04699999999999704414 -23.99200000000000088107 0.0
-43.99499999999999744205 -27.99699999999999988631 0.0
-46.07099999999999795364 -25.02700000000000102318 0.0
-45.03799999999999670308 -26.01300000000000167688 0.0
-46.57200000000000272848 -24.52199999999999846523 0.0
-47.55899999999999749889 -24.00400000000000133582 0.0
-44.51800000000000068212 -26.51200000000000045475 0.0
-43.50000000000000000000 -30.00000000000000000000 0.0
-50.00000000000000000000 -23.50000000000000000000 0.0
-43.99699999999999988631 -27.50199999999999889155 0.0
-49.51400000000000289901 -23.49899999999999877787 0.0
-43.49600000000000221689 -29.50000000000000000000 0.0
-49.02700000000000102318 -23.49800000000000110845 0.0
-43.49099999999999965894 -29.00000000000000000000 0.0
-45.57399999999999806732 -25.03300000000000125056 0.0
-48.53999999999999914735 -23.50000000000000000000 0.0
-47.07200000000000272848 -24.01500000000000056843 0.0
-45.05799999999999982947 -25.52599999999999980105 0.0
-43.49000000000000198952 -28.50300000000000011369 0.0
-43.99799999999999755573 -27.00700000000000144951 0.0
-46.08299999999999840838 -24.53600000000000136424 0.0
-44.53000000000000113687 -26.02100000000000079581 0.0
-48.05400000000000204636 -23.50300000000000011369 0.0
-43.49000000000000198952 -28.00600000000000022737 0.0
-46.58400000000000318323 -24.03099999999999880629 0.0
-47.56700000000000017053 -23.51399999999999934630 0.0
-44.00999999999999801048 -26.51800000000000068212 0.0
-43.49099999999999965894 -27.51300000000000167688 0.0
-45.07800000000000295586 -25.03900000000000147793 0.0
-43.00000000000000000000 -30.00000000000000000000 0.0
-50.00000000000000000000 -23.00000000000000000000 0.0
-49.51500000000000056843 -23.00199999999999889155 0.0
-45.58899999999999863576 -24.54200000000000159162 0.0
-42.99300000000000210321 -29.50300000000000011369 0.0
-44.54899999999999948841 -25.53200000000000002842 0.0
-49.03099999999999880629 -23.00400000000000133582 0.0
-42.98599999999999710099 -29.00600000000000022737 0.0
-47.08100000000000306954 -23.52599999999999980105 0.0
-46.09499999999999886313 -24.04599999999999937472 0.0
-48.54599999999999937472 -23.00799999999999911893 0.0
-43.49199999999999732836 -27.02100000000000079581 0.0
-42.98499999999999943157 -28.51099999999999923261 0.0
-44.02100000000000079581 -26.03000000000000113687 0.0
-48.06099999999999994316 -23.01300000000000167688 0.0
-42.98400000000000176215 -28.01599999999999823785 0.0
[...]
CELL_DATA 9992
FIELD ele_resp_24.000000 1
Sostenimiento 6 9992 float
-149577.144256 -421734.048310 -142827.798103 -6466.754595 0.502574 0.0
-145917.543454 -409824.009046 -138935.388161 -5264.767234 0.500273 0.0
-139856.892436 -397785.770448 -134410.665721 -5046.318129 0.502747 0.0
-135599.309928 -386314.841346 -130478.537837 -4153.852732 0.501991 0.0
-131615.644034 -376390.059267 -127001.425843 -2935.825256 0.501925 0.0
-126500.724268 -364841.099117 -122835.455828 -2159.912551 0.502984 0.0
-120323.294340 -352031.339643 -118088.658496 -1706.026887 0.505447 0.0
-114086.658934 -339018.548878 -113312.641759 -1859.791111 0.508024 0.0
-108599.265073 -326358.655157 -109120.326622 -2026.427684 0.508657 0.0
-103243.189651 -313700.361000 -104972.096187 -2375.679019 0.509004 0.0
-97685.909987 -300221.573428 -100444.819843 -3035.085319 0.509374 0.0
-92622.858606 -286945.776996 -96129.131492 -3690.107010 0.508536 0.0
-87734.932433 -273675.133105 -91795.426595 -4441.100111 0.507308 0.0
-82310.852082 -259778.220759 -86986.775672 -4613.991246 0.507238 0.0
-77866.992654 -246658.078210 -82571.830239 -5083.009050 0.505135 0.0
-73359.155863 -233095.971303 -77858.639477 -5378.639048 0.502870 0.0
-64805.607316 -204812.870774 -68245.801617 -5719.913924 0.493984 0.0
-69184.898837 -219375.272776 -73236.744315 -5714.600659 0.498817 0.0
-133125.434999 -398674.578174 -132982.079183 24.131396 0.517123 0.0
-133126.214381 -398645.395896 -132970.099709 77.231480 0.517106 0.0
-133173.014517 -398689.621304 -132989.885099 139.788257 0.517048 0.0
-133240.839111 -398812.076694 -133033.111221 171.675842 0.517011 0.0
-133312.111438 -398947.186462 -133078.287182 190.407215 0.516981 0.0
-133381.405111 -399091.234534 -133124.303118 204.455516 0.516963 0.0
-133461.188447 -399228.405259 -133169.556396 210.641124 0.516921 0.0
-133536.719404 -399352.258968 -133218.620773 169.650257 0.516862 0.0
-133519.839887 -399292.949905 -133203.197448 109.232905 0.516844 0.0
-133470.077562 -399235.826043 -133176.475901 95.144748 0.516903 0.0
-133438.210728 -399246.206554 -133171.104320 94.393144 0.516978 0.0
-133411.125829 -399218.249436 -133157.343816 133.726059 0.517013 0.0
-133435.178506 -399137.327453 -133143.126490 188.943269 0.516897 0.0
-133527.395933 -399027.757756 -133138.788422 203.323686 0.516614 0.0
-133654.305867 -398966.408680 -133155.178637 143.746215 0.516297 0.0
-133763.774581 -398921.372283 -133171.286716 40.881643 0.516030 0.0
-133871.557853 -398906.849875 -133194.601932 -55.317379 0.515791 0.0
-67856.969123 -204839.833255 -68322.817857 -35.338008 0.483263 0.0
-67866.063115 -204947.272447 -68352.632795 -41.979780 0.483396 0.0
-67832.938380 -204981.865076 -68353.617952 39.727410 0.483572 0.0
-67775.249276 -204906.516259 -68321.194078 158.063531 0.483668 0.0
-67717.228601 -204750.841132 -68268.816751 286.720902 0.483639 0.0
-67635.871636 -204487.037926 -68183.921675 403.462410 0.483527 0.0
-67516.402854 -204119.718920 -68063.744284 442.372247 0.483393 0.0
-67453.317775 -203573.403725 -67912.738334 351.250108 0.482759 0.0
-67428.783342 -202849.885677 -67726.236161 320.810720 0.481701 0.0
-67313.466522 -202554.284001 -67624.380206 81.080142 0.481658 0.0
-67349.217503 -201448.533152 -67357.299995 125.730387 0.479757 0.0
-67143.004732 -202896.190576 -67670.143978 78.261028 0.482834 0.0
-67076.354659 -203564.785873 -67822.144522 -114.686679 0.484141 0.0
-67030.684512 -204320.285302 -68001.652291 9.118712 0.485499 0.0
-67221.914821 -204492.110098 -68093.371610 197.543170 0.485049 0.0
-67483.110103 -204446.703183 -68147.692500 383.408734 0.484000 0.0
-67620.810226 -204499.666139 -68197.672554 499.413510 0.483564 0.0
-67639.295702 -204564.675243 -68221.231048 546.780955 0.483591 0.0
-67611.738395 -204589.255532 -68223.201323 536.477237 0.483725 0.0
-133982.810233 -398926.381941 -133227.298043 -136.835482 0.515573 0.0
-67581.002617 -204600.335045 -68220.496847 498.859764 0.483849 0.0
-134097.227972 -398941.155372 -133259.595836 -184.740940 0.515345 0.0
-67551.267744 -204630.473747 -68223.338691 463.247048 0.483999 0.0
-134241.581590 -398963.516512 -133301.274526 -207.224795 0.515059 0.0
-67503.554476 -204657.171586 -68223.665004 479.505112 0.484204 0.0
-134412.588745 -398993.602948 -133351.547923 -237.020181 0.514725 0.0
-67454.068792 -204683.730359 -68222.727231 518.958110 0.484418 0.0
-134619.334676 -399054.478466 -133418.453286 -284.308900 0.514340 0.0
-67391.428480 -204734.104351 -68229.225529 586.341263 0.484707 0.0
-134850.007753 -399141.303765 -133497.827880 -362.335341 0.513928 0.0
-67341.500222 -204760.375553 -68235.863461 712.782117 0.484905 0.0
-135105.371023 -399250.690129 -133589.015288 -465.016895 0.513483 0.0
-67333.315983 -204589.911104 -68205.341939 882.506884 0.484635 0.0
-135389.646954 -399402.949947 -133698.149225 -592.173777 0.513013 0.0
-67429.420157 -204239.549992 -68153.875654 929.614550 0.483690 0.0
-135695.982659 -399583.165702 -133819.787090 -740.379275 0.512521 0.0
-67536.560216 -204060.094005 -68150.240755 748.378817 0.482950 0.0
-136037.680240 -399823.555486 -133965.308932 -903.923654 0.512006 0.0
-67572.967437 -204417.424155 -68311.833856 476.170337 0.483176 0.0
-136392.414081 -400066.402863 -134114.704236 -1096.401680 0.511469 0.0
-67401.733109 -204845.841834 -68369.872223 341.238412 0.484508 0.0
-136736.943213 -400278.025976 -134253.742297 -1310.083980 0.510930 0.0
-67275.557314 -205437.293620 -68531.605023 323.032946 0.485775 0.0
-137115.593796 -400560.985820 -134419.144904 -1534.377516 0.510381 0.0
-67199.025241 -206034.948568 -68721.601217 332.654646 0.486822 0.0
-137531.683868 -400925.537166 -134614.305258 -1790.427465 0.509824 0.0
-67229.120445 -206742.413598 -69025.344167 332.025494 0.487461 0.0
-67197.392440 -206955.357882 -69118.341644 299.940823 0.487770 0.0
-137980.773482 -401317.608076 -134824.595389 -2048.666345 0.509225 0.0
-67281.503471 -207134.644331 -69276.443713 167.743315 0.487461 0.0
-138496.521202 -401760.546517 -135064.266930 -2297.759237 0.508532 0.0
-67177.615771 -207271.919218 -69395.750276 -138.122213 0.487738 0.0
-139120.870998 -402317.740002 -135359.652750 -2526.236769 0.507712 0.0
-66673.666154 -207174.920468 -69341.229920 -747.752456 0.489220 0.0
-139885.301702 -403097.847445 -135745.787287 -2755.445698 0.506791 0.0
-66109.748834 -206371.408622 -69243.004468 -2023.138887 0.489517 0.0
-140841.638959 -404222.426186 -136266.016286 -3055.052337 0.505767 0.0
-65492.779744 -206005.726900 -69040.275688 -3032.948820 0.491357 0.0
-65108.268084 -205659.557350 -68804.447160 -4261.517610 0.492783 0.0
-141961.966836 -405825.585200 -136946.888009 -3557.772069 0.504820 0.0
-143191.402004 -408819.522756 -138002.731190 -4067.740232 0.504775 0.0
-144763.188907 -410787.640298 -138887.707301 -4179.918036 0.503211 0.0
-146816.227197 -412351.246465 -139791.868415 -5201.821420 0.500494 0.0
-125878.086394 -377130.404233 -125802.440705 24.086894 0.514916 0.0
-75022.959577 -226543.330945 -75532.841896 -20.620364 0.490042 0.0
-118621.074157 -355611.806337 -118627.585903 25.545227 0.512508 0.0
-82220.623025 -248197.673190 -82736.128975 -7.742813 0.495620 0.0
-111329.160928 -334130.427685 -111451.223257 28.589376 0.509944 0.0
-89455.023585 -269759.047552 -89926.656673 10.850962 0.500179 0.0
-104026.218062 -312695.193830 -104281.168679 23.517240 0.507142 0.0
-96729.545605 -291249.559833 -97108.544080 17.417939 0.503943 0.0
-69980.363768 -220610.634642 -73839.678356 -4343.079772 0.497002 0.0
-74595.997598 -234689.298502 -78479.046582 -4270.009114 0.500699 0.0
-84198.050360 -262168.870724 -87780.233626 -3339.004434 0.504692 0.0
-79183.410618 -248524.160856 -83140.896564 -3754.592635 0.503488 0.0
-88742.700854 -275079.929058 -92118.316341 -2955.600672 0.506350 0.0
-93351.949648 -286305.884132 -95895.625636 -2816.864965 0.506185 0.0
-98482.712050 -299174.609582 -100111.624522 -2323.615286 0.506576 0.0
-104073.771193 -313223.061611 -104871.888923 -2020.421374 0.506700 0.0
-109192.304651 -325646.998641 -108965.736898 -1789.506792 0.506696 0.0
-114055.765189 -336808.151423 -112613.329234 -1527.387815 0.506244 0.0
-119729.478203 -348621.551063 -117087.757316 -1444.775292 0.503671 0.0
-125054.193470 -359973.985921 -121257.044866 -1909.883586 0.501860 0.0
-129787.966736 -370559.664023 -125086.907672 -2614.939953 0.500804 0.0
-133592.300801 -379721.122338 -128328.355803 -2531.874000 0.500522 0.0
-137678.230278 -388620.887150 -131574.779357 -2341.447777 0.499444 0.0
-142194.135334 -399314.181884 -135377.079286 -3915.089407 0.499132 0.0
-125902.945542 -377188.984655 -125821.808191 87.234396 0.514913 0.0
-75075.764269 -226659.701627 -75575.358155 -6.701193 0.490025 0.0
-75054.480707 -226627.325464 -75562.354600 58.420413 0.490052 0.0
-118674.644910 -355790.350887 -118684.267089 77.093475 0.512547 0.0
-111396.529397 -334317.347803 -111513.676876 44.461965 0.509960 0.0
-104101.946054 -312834.908790 -104334.568970 31.340604 0.507089 0.0
-96831.867421 -291407.634722 -97172.716437 25.907264 0.503835 0.0
-82307.730719 -248331.531028 -82791.123439 8.329959 0.495517 0.0
-89562.951787 -269931.609903 -89993.237237 16.229539 0.500072 0.0
-70725.498787 -222030.995286 -74280.700908 -3152.752693 0.496365 0.0
-126019.783919 -377467.078158 -125917.568171 127.099273 0.514897 0.0
-126167.386456 -377886.699732 -126055.239473 147.238427 0.514934 0.0
-126329.210898 -378368.280055 -126210.676200 174.685209 0.514995 0.0
-126472.912733 -378792.353784 -126346.316549 185.334391 0.515049 0.0
-126612.721885 -379168.376089 -126467.918927 204.310691 0.515072 0.0
-126732.350614 -379408.238724 -126549.978449 208.474279 0.515026 0.0
-126675.355288 -379215.564545 -126479.006244 179.843313 0.515003 0.0
-126532.544673 -378844.745893 -126340.469952 122.160750 0.515021 0.0
-126412.359880 -378641.551585 -126254.300831 122.366467 0.515124 0.0
-126333.022425 -378481.894749 -126203.729293 183.494511 0.515148 0.0
-126315.581253 -378212.840035 -126132.105322 288.717479 0.514958 0.0
-74969.942239 -226388.178062 -75481.749133 163.833825 0.490002 0.0
-72174.527714 -224479.128477 -75156.710499 -1928.303332 0.494808 0.0
-74247.484709 -228596.929280 -76492.822285 -688.524439 0.493898 0.0
-75173.264191 -229691.306372 -76834.816756 -196.147613 0.492678 0.0
-75198.581963 -229216.167455 -76598.628292 159.522968 0.492257 0.0
-74949.697191 -228465.965065 -76248.634995 261.902039 0.492329 0.0
-74752.690134 -227802.263627 -75955.293471 338.708946 0.492284 0.0
-74711.122490 -227125.487197 -75713.863407 386.868506 0.491639 0.0
-74766.027669 -226529.618640 -75533.980452 395.861247 0.490725 0.0
-74846.246469 -226034.534209 -75398.598775 422.999847 0.489831 0.0
-74930.292659 -225733.616779 -75323.475908 523.340367 0.489172 0.0
-74919.025233 -225614.850138 -75277.842150 680.544946 0.489083 0.0
-74859.903205 -225772.342742 -75294.506442 795.496562 0.489539 0.0
-74783.695456 -226011.156010 -75332.888838 790.516858 0.490149 0.0
-74741.787493 -226175.851528 -75360.623592 718.716070 0.490533 0.0
-74729.744595 -226196.504204 -75359.676770 628.863429 0.490609 0.0
-74754.041141 -226183.561283 -75359.688371 558.561805 0.490512 0.0
-74780.621218 -226168.166878 -75361.830966 497.481997 0.490398 0.0
-74791.335168 -226164.650871 -75365.725490 491.510661 0.490350 0.0
-74792.374558 -226144.837583 -75361.639162 515.625934 0.490317 0.0
-74806.941800 -226149.320428 -75368.819657 550.595659 0.490268 0.0
-74820.293694 -226145.822881 -75372.892543 552.708835 0.490212 0.0
-74791.712781 -225996.454980 -75330.436041 490.594612 0.490090 0.0
-74596.676044 -225520.095076 -75165.636722 285.459386 0.490071 0.0
-74207.859584 -224850.634854 -74904.235163 76.548290 0.490450 0.0
-73785.989269 -223981.958482 -74584.157299 61.904379 0.490664 0.0
-73549.461107 -221983.757581 -74027.360684 151.250483 0.488599 0.0
-73238.395765 -221311.821892 -73782.947477 -0.068830 0.488708 0.0
-72763.776053 -218825.774946 -73041.484217 219.702241 0.486743 0.0
-73508.336502 -221268.126302 -73839.308679 365.020812 0.487702 0.0
-74032.883865 -221662.262959 -74067.695808 189.755667 0.486443 0.0
-74218.722976 -223867.270567 -74665.473396 209.686646 0.488989 0.0
-74519.314479 -224731.310958 -74956.213935 441.473392 0.489194 0.0
-74875.895811 -225997.427527 -75361.143290 277.816653 0.489770 0.0
-74750.082757 -225455.385043 -75194.550661 389.703820 0.489432 0.0
-139600.525181 -395025.343751 -133656.467215 -3407.699189 0.500858 0.0
-137278.414399 -391587.233566 -132216.411973 -3009.164321 0.502784 0.0
-135032.671381 -386818.465985 -130462.784341 -2916.673254 0.503503 0.0
-133470.844800 -383201.812552 -129168.164338 -2391.028612 0.503731 0.0
-132202.706235 -381382.236188 -128396.235606 -2077.657389 0.504880 0.0
-131412.846047 -380378.817545 -127947.915898 -1868.593865 0.505714 0.0
-130861.551050 -380083.218136 -127736.192296 -1682.242559 0.506643 0.0
-130454.793467 -379971.705402 -127606.624717 -1521.730564 0.507422 0.0
-130109.927998 -379827.627830 -127484.388957 -1330.088931 0.508039 0.0
-129768.035121 -379653.730065 -127355.441296 -1130.584061 0.508628 0.0
-129449.748491 -379511.014983 -127240.190869 -928.485086 0.509193 0.0
-129147.801811 -379383.643214 -127132.861256 -760.614751 0.509739 0.0
-128811.000116 -379149.062027 -126990.015536 -615.532626 0.510272 0.0
-128465.508948 -378825.736379 -126822.811332 -482.083095 0.510750 0.0
-128143.772821 -378509.604525 -126663.344337 -355.388669 0.511184 0.0
-127831.937922 -378226.388311 -126514.581558 -248.189662 0.511626 0.0
-127555.986276 -377997.338293 -126388.331142 -163.955596 0.512037 0.0
-127303.785479 -377804.888233 -126277.168428 -99.984770 0.512428 0.0
-127094.047570 -377714.456712 -126202.126071 -59.284454 0.512813 0.0
-126932.246489 -377714.693409 -126161.734975 -46.394223 0.513170 0.0
-126823.596476 -377774.228507 -126149.456246 -43.030778 0.513461 0.0
-126769.624879 -377890.568373 -126165.048313 -14.040185 0.513679 0.0
-126711.780210 -377999.228407 -126177.752154 49.216492 0.513899 0.0
-126636.922264 -378071.087922 -126177.002546 132.523806 0.514126 0.0
-126557.250397 -378075.697808 -126158.237051 213.296072 0.514307 0.0
-126428.267244 -378075.882710 -126126.037488 299.475540 0.514592 0.0
-134249.328156 -380241.213943 -128622.635543 -2835.519934 0.499589 0.0
-130689.082877 -372709.872119 -125849.738767 -1909.412456 0.500680 0.0
-75786.019278 -237129.272195 -79373.433073 -3157.834287 0.499757 0.0
-80870.632105 -249856.782858 -83692.257070 -2914.181710 0.500102 0.0
-85848.604533 -264299.511964 -88472.624248 -2448.163748 0.502688 0.0
-78237.364430 -241993.974206 -81069.645442 -2207.539330 0.498289 0.0
-91078.646145 -278484.016280 -93279.846069 -2305.983716 0.503980 0.0
-124976.897032 -359677.743486 -121163.660147 -1516.607060 0.501750 0.0
-119286.367110 -346340.544966 -116406.728019 -1434.033320 0.502583 0.0
-114309.616628 -335020.554342 -112332.542725 -1411.034045 0.503703 0.0
-109435.789424 -324048.563889 -108321.259678 -1596.689202 0.505104 0.0
-104858.353741 -312690.041785 -104567.335132 -1656.400740 0.504844 0.0
-99862.662132 -299603.271360 -100238.925169 -1636.600107 0.503927 0.0
-118848.939723 -356261.192591 -118842.990890 93.376458 0.512570 0.0
-111567.450297 -334770.436902 -111667.698017 58.222951 0.509978 0.0
-104217.380963 -313086.046668 -104424.708513 22.928280 0.507048 0.0
-96889.030718 -291459.229010 -97199.063691 18.315037 0.503735 0.0
-89569.662865 -269835.187439 -89967.421366 39.995781 0.499945 0.0
-82285.169493 -248204.864804 -82753.045049 62.193474 0.495426 0.0
-82193.433417 -247838.344646 -82638.194000 135.148684 0.495244 0.0
-82093.190154 -247325.913812 -82485.020055 218.669696 0.494898 0.0
-119026.440277 -356795.118726 -119017.223325 110.197776 0.512645 0.0
-119192.473082 -357343.508637 -119191.274102 119.323878 0.512761 0.0
-119358.964363 -357864.210061 -119357.504519 175.332726 0.512852 0.0
-119489.012987 -358208.676966 -119470.546703 184.568094 0.512870 0.0
-119571.608546 -358290.328019 -119504.197039 255.035649 0.512766 0.0
-119560.997973 -358051.895890 -119434.407008 259.003601 0.512590 0.0
-119429.199324 -357673.062960 -119299.060778 171.787732 0.512570 0.0
-119205.801734 -357376.017152 -119160.463487 104.681046 0.512838 0.0
-81981.627919 -246685.589369 -82296.658818 302.297969 0.494422 0.0
-130758.373835 -374246.116228 -126251.122534 -2246.435468 0.501881 0.0
-119022.687696 -357136.139788 -119042.779257 253.995321 0.513071 0.0
-119071.200596 -356982.609395 -119003.524091 406.627778 0.512845 0.0
-119387.024058 -357227.373836 -119153.599456 358.348662 0.512311 0.0
-119561.594241 -357603.415062 -119291.252309 213.010365 0.512243 0.0
-119612.779522 -357772.723650 -119346.375776 206.880995 0.512276 0.0
-119620.002051 -357348.666313 -119242.167074 181.249476 0.511878 0.0
-119571.206097 -356931.739118 -119125.736286 111.133045 0.511615 0.0
-119540.754613 -356632.208626 -119043.240793 93.112501 0.511415 0.0
-119602.270794 -356484.239705 -119021.627607 104.200858 0.511139 0.0
-119759.262268 -356496.345030 -119063.901807 105.513323 0.510785 0.0
-119967.565148 -356614.869815 -119145.608723 63.028664 0.510408 0.0
-120223.372205 -356871.617300 -119273.747359 9.199651 0.510047 0.0
-120506.052098 -357202.887695 -119427.234931 -57.644161 0.509692 0.0
-120814.154774 -357543.212158 -119589.341716 -139.932983 0.509287 0.0
-121103.325768 -357809.102647 -119728.107086 -242.603567 0.508861 0.0
-121386.935123 -358023.097493 -119852.508137 -334.146905 0.508402 0.0
-121694.960886 -358238.608951 -119983.392442 -438.854713 0.507889 0.0
-121973.307625 -358382.434343 -120088.935474 -579.857395 0.507382 0.0
-122240.439649 -358474.324021 -120178.690900 -734.482423 0.506856 0.0
-122491.067700 -358506.070097 -120249.284432 -897.095448 0.506315 0.0
-122678.472966 -358385.510827 -120265.995931 -1020.726047 0.505781 0.0
-122906.414385 -358103.271261 -120252.421394 -1046.628408 0.505007 0.0
-123325.058410 -357868.925862 -120298.496051 -1237.341011 0.503847 0.0
-124084.962631 -359059.644077 -120786.151659 -1553.026418 0.503209 0.0
-125781.744856 -361992.574495 -121943.579820 -1696.225346 0.502028 0.0
-128420.794686 -368939.818766 -124340.153381 -2066.559558 0.502347 0.0
-81776.869068 -245840.247190 -82032.855172 341.547287 0.493976 0.0
-81335.135099 -245117.162541 -81740.319721 200.731092 0.494449 0.0
-80293.905324 -240483.568608 -80320.963473 288.054788 0.491674 0.0
-79259.534495 -239196.810643 -79743.751042 706.225810 0.493338 0.0
-78820.053841 -236338.150396 -78918.675407 270.711598 0.490902 0.0
-78628.909330 -238169.570222 -79327.112520 -31.149552 0.494026 0.0
-79461.322407 -240275.753009 -80056.379368 -67.257484 0.494130 0.0
-80794.913786 -243900.593245 -81291.373641 121.097620 0.494616 0.0
-81508.761962 -246157.232209 -82027.300993 114.325655 0.495296 0.0
-82140.517758 -247494.971047 -82513.285738 314.961908 0.495034 0.0
-82299.354529 -248398.388712 -82770.940873 514.914808 0.495726 0.0
-82214.977086 -248160.846651 -82686.282816 500.227673 0.495697 0.0
-82162.151078 -247900.204416 -82605.078360 533.374057 0.495536 0.0
-82134.649608 -247852.465328 -82582.747908 518.999009 0.495570 0.0
-82176.292873 -247938.463576 -82611.021149 488.340611 0.495557 0.0
-82248.511645 -248062.463691 -82658.136558 506.900639 0.495493 0.0
-82266.855606 -248074.580146 -82662.395772 554.039280 0.495460 0.0
-82260.150045 -247999.637289 -82637.942356 620.327160 0.495396 0.0
-82295.959486 -247897.916914 -82618.700748 662.500099 0.495158 0.0
-82376.228845 -247773.305984 -82603.634343 679.752751 0.494751 0.0
-82455.292839 -247614.498501 -82581.662897 660.836045 0.494296 0.0
-82517.380510 -247514.310066 -82575.391942 581.402576 0.493957 0.0
-82537.044979 -247509.136723 -82580.185147 501.332341 0.493882 0.0
-82505.458914 -247655.076243 -82617.275741 435.510535 0.494149 0.0
-82460.980613 -247974.827268 -82701.604722 417.563416 0.494667 0.0
-82399.310608 -248455.913544 -82833.835037 409.827236 0.495419 0.0
-82423.455884 -249033.606741 -83018.218395 284.285867 0.496002 0.0
-82704.819038 -249635.170981 -83285.841311 143.028713 0.495764 0.0
-83366.510428 -251318.617815 -83934.115884 263.974078 0.495679 0.0