# vtk DataFile Version 2.0
opensees model
ASCII
DATASET UNSTRUCTURED_GRID
POINTS 34903 float
-50.00000000000000000000 -30.00000000000000000000 0.0
-50.00000000000000000000 -29.50000000000000000000 0.0
-49.50000000000000000000 -30.00000000000000000000 0.0
-49.50000000000000000000 -29.50000000000000000000 0.0
-49.00000000000000000000 -30.00000000000000000000 0.0
-50.00000000000000000000 -29.00000000000000000000 0.0
-49.50000000000000000000 -29.00000000000000000000 0.0
-49.00000000000000000000 -29.50000000000000000000 0.0
-49.00000000000000000000 -29.00000000000000000000 0.0
-50.00000000000000000000 -28.50000000000000000000 0.0
-48.50000000000000000000 -30.00000000000000000000 0.0
-49.50099999999999766942 -28.50000000000000000000 0.0
-48.49900000000000233058 -29.50100000000000122213 0.0
-49.00200000000000244427 -28.50000000000000000000 0.0
-48.49699999999999988631 -29.00100000000000122213 0.0
-50.00000000000000000000 -28.00000000000000000000 0.0
-48.00000000000000000000 -30.00000000000000000000 0.0
-49.50200000000000244427 -28.00000000000000000000 0.0
-47.99699999999999988631 -29.50100000000000122213 0.0
-48.50000000000000000000 -28.50000000000000000000 0.0
-49.00399999999999778311 -28.00000000000000000000 0.0
-47.99499999999999744205 -29.00199999999999889155 0.0
-48.50300000000000011369 -27.99800000000000110845 0.0
-50.00000000000000000000 -27.50000000000000000000 0.0
-47.50000000000000000000 -30.00000000000000000000 0.0
-47.99799999999999755573 -28.49899999999999877787 0.0
-47.49699999999999988631 -29.49899999999999877787 0.0
-49.50200000000000244427 -27.49500000000000099476 0.0
-47.49499999999999744205 -28.99800000000000110845 0.0
-49.00399999999999778311 -27.48999999999999843681 0.0
-48.00099999999999766942 -27.99599999999999866418 0.0
-47.49600000000000221689 -28.49399999999999977263 0.0
-48.50399999999999778311 -27.48999999999999843681 0.0
-47.00000000000000000000 -30.00000000000000000000 0.0
-50.00000000000000000000 -27.00000000000000000000 0.0
-46.99699999999999988631 -29.49699999999999988631 0.0
-49.50200000000000244427 -26.98999999999999843681 0.0
-46.99499999999999744205 -28.99399999999999977263 0.0
-49.00399999999999778311 -26.98000000000000042633 0.0
-48.00399999999999778311 -27.48900000000000076739 0.0
-47.49699999999999988631 -27.98999999999999843681 0.0
-46.99399999999999977263 -28.48900000000000076739 0.0
-48.50500000000000255795 -26.98100000000000164846 0.0
-46.50000000000000000000 -30.00000000000000000000 0.0
-50.00000000000000000000 -26.50000000000000000000 0.0
-46.49699999999999988631 -29.49599999999999866418 0.0
-47.50200000000000244427 -27.48799999999999954525 0.0
-49.50399999999999778311 -26.48900000000000076739 0.0
-48.00600000000000022737 -26.98199999999999931788 0.0
-46.99199999999999732836 -27.98499999999999943157 0.0
-46.49399999999999977263 -28.99200000000000088107 0.0
-49.00800000000000267164 -26.47800000000000153477 0.0
-46.49399999999999977263 -28.48799999999999954525 0.0
-48.50999999999999801048 -26.47800000000000153477 0.0
-47.50699999999999789679 -26.98499999999999943157 0.0
-47.00099999999999766942 -27.48600000000000065370 0.0
-46.00000000000000000000 -30.00000000000000000000 0.0
-50.00000000000000000000 -26.00000000000000000000 0.0
-45.99600000000000221689 -29.49500000000000099476 0.0
-49.50500000000000255795 -25.98799999999999954525 0.0
-48.01200000000000045475 -26.47899999999999920419 0.0
-46.49399999999999977263 -27.98400000000000176215 0.0
-45.99199999999999732836 -28.98999999999999843681 0.0
-49.01100000000000278533 -25.97500000000000142109 0.0
-47.00900000000000034106 -26.98699999999999832312 0.0
-45.99399999999999977263 -28.48600000000000065370 0.0
-48.51400000000000289901 -25.97500000000000142109 0.0
-47.51500000000000056843 -26.48499999999999943157 0.0
-46.50099999999999766942 -27.48499999999999943157 0.0
-45.99600000000000221689 -27.98300000000000054001 0.0
-48.01800000000000068212 -25.97599999999999909051 0.0
-45.50000000000000000000 -30.00000000000000000000 0.0
-50.00000000000000000000 -25.50000000000000000000 0.0
-45.49600000000000221689 -29.49399999999999977263 0.0
-49.50699999999999789679 -25.48900000000000076739 0.0
-47.01899999999999835154 -26.49200000000000088107 0.0
-46.50800000000000267164 -26.98699999999999832312 0.0
-45.49199999999999732836 -28.98900000000000076739 0.0
-49.01400000000000289901 -25.47700000000000031264 0.0
-47.52300000000000324007 -25.98600000000000065370 0.0
-46.00200000000000244427 -27.48400000000000176215 0.0
-45.49499999999999744205 -28.48799999999999954525 0.0
-48.52000000000000312639 -25.47700000000000031264 0.0
-45.49799999999999755573 -27.98699999999999832312 0.0
-48.02499999999999857891 -25.47800000000000153477 0.0
-46.52000000000000312639 -26.49299999999999855049 0.0
-47.02900000000000346745 -25.99699999999999988631 0.0
-45.00000000000000000000 -30.00000000000000000000 0.0
-50.00000000000000000000 -25.00000000000000000000 0.0
-46.00800000000000267164 -26.98600000000000065370 0.0
-44.99600000000000221689 -29.49399999999999977263 0.0
-49.50900000000000034106 -24.98900000000000076739 0.0
-44.99099999999999965894 -28.98799999999999954525 0.0
-49.01800000000000068212 -24.97899999999999920419 0.0
-47.53199999999999647571 -25.48799999999999954525 0.0
-45.50399999999999778311 -27.48900000000000076739 0.0
-44.99499999999999744205 -28.48999999999999843681 0.0
-48.52499999999999857891 -24.97899999999999920419 0.0
-46.53199999999999647571 -26.00000000000000000000 0.0
-46.02199999999999846523 -26.49399999999999977263 0.0
-47.03900000000000147793 -25.49899999999999877787 0.0
-44.99900000000000233058 -27.99099999999999965894 0.0
-48.03300000000000125056 -24.98000000000000042633 0.0
-45.51100000000000278533 -26.99099999999999965894 0.0
-50.00000000000000000000 -24.50000000000000000000 0.0
-44.50000000000000000000 -30.00000000000000000000 0.0
-44.49699999999999988631 -29.49599999999999866418 0.0
-49.50999999999999801048 -24.49200000000000088107 0.0
-47.54099999999999681677 -24.98999999999999843681 0.0
-45.00600000000000022737 -27.49399999999999977263 0.0
-44.49399999999999977263 -28.99099999999999965894 0.0
-49.02100000000000079581 -24.48499999999999943157 0.0
-46.03600000000000136424 -26.00300000000000011369 0.0
-46.54599999999999937472 -25.50700000000000144951 0.0
-45.52400000000000090949 -26.50000000000000000000 0.0
-48.53000000000000113687 -24.48499999999999943157 0.0
-44.49499999999999744205 -28.49299999999999855049 0.0
-47.04999999999999715783 -25.00100000000000122213 0.0
-45.01400000000000289901 -26.99699999999999988631 0.0
-48.03999999999999914735 -24.48600000000000065370 0.0
-44.49699999999999988631 -27.99399999999999977263 0.0
-46.05299999999999727152 -25.51500000000000056843 0.0
-45.53699999999999903366 -26.00799999999999911893 0.0
-44.00000000000000000000 -30.00000000000000000000 0.0
-50.00000000000000000000 -24.00000000000000000000 0.0
-43.99799999999999755573 -29.49699999999999988631 0.0
-47.54999999999999715783 -24.49699999999999988631 0.0
-49.51200000000000045475 -23.99500000000000099476 0.0
-44.50200000000000244427 -27.49800000000000110845 0.0
-46.56000000000000227374 -25.01399999999999934630 0.0
-45.02600000000000335376 -26.50499999999999900524 0.0
-43.99600000000000221689 -28.99500000000000099476 0.0
-49.02400000000000090949 -23.99099999999999965894 0.0
-48.53499999999999658939 -23.99200000000000088107 0.0
-43.99600000000000221689 -28.49599999999999866418 0.0
-47.06099999999999994316 -24.50799999999999911893 0.0
-44.50600000000000022737 -27.00199999999999889155 0.0
-45.55599999999999738520 -25.51999999999999957367 0.0
-48.04699999999999704414 -23.99200000000000088107 0.0
-43.99499999999999744205 -27.99699999999999988631 0.0
-46.07099999999999795364 -25.02700000000000102318 0.0
-45.03799999999999670308 -26.01300000000000167688 0.0
-46.57200000000000272848 -24.52199999999999846523 0.0
-47.55899999999999749889 -24.00400000000000133582 0.0
-44.51800000000000068212 -26.51200000000000045475 0.0
-43.50000000000000000000 -30.00000000000000000000 0.0
-50.00000000000000000000 -23.50000000000000000000 0.0
-43.99699999999999988631 -27.50199999999999889155 0.0
-49.51400000000000289901 -23.49899999999999877787 0.0
-43.49600000000000221689 -29.50000000000000000000 0.0
-49.02700000000000102318 -23.49800000000000110845 0.0
-43.49099999999999965894 -29.00000000000000000000 0.0
-45.57399999999999806732 -25.03300000000000125056 0.0
-48.53999999999999914735 -23.50000000000000000000 0.0
-47.07200000000000272848 -24.01500000000000056843 0.0
-45.05799999999999982947 -25.52599999999999980105 0.0
-43.49000000000000198952 -28.50300000000000011369 0.0
-43.99799999999999755573 -27.00700000000000144951 0.0
-46.08299999999999840838 -24.53600000000000136424 0.0
-44.53000000000000113687 -26.02100000000000079581 0.0
-48.05400000000000204636 -23.50300000000000011369 0.0
-43.49000000000000198952 -28.00600000000000022737 0.0
-46.58400000000000318323 -24.03099999999999880629 0.0
-47.56700000000000017053 -23.51399999999999934630 0.0
-44.00999999999999801048 -26.51800000000000068212 0.0
-43.49099999999999965894 -27.51300000000000167688 0.0
-45.07800000000000295586 -25.03900000000000147793 0.0
-43.00000000000000000000 -30.00000000000000000000 0.0
-50.00000000000000000000 -23.00000000000000000000 0.0
-49.51500000000000056843 -23.00199999999999889155 0.0
-45.58899999999999863576 -24.54200000000000159162 0.0
-42.99300000000000210321 -29.50300000000000011369 0.0
-44.54899999999999948841 -25.53200000000000002842 0.0
-49.03099999999999880629 -23.00400000000000133582 0.0
-42.98599999999999710099 -29.00600000000000022737 0.0
-47.08100000000000306954 -23.52599999999999980105 0.0
-46.09499999999999886313 -24.04599999999999937472 0.0
-48.54599999999999937472 -23.00799999999999911893 0.0
-43.49199999999999732836 -27.02100000000000079581 0.0
-42.98499999999999943157 -28.51099999999999923261 0.0
-44.02100000000000079581 -26.03000000000000113687 0.0
-48.06099999999999994316 -23.01300000000000167688 0.0
-42.98400000000000176215 -28.01599999999999823785 0.0
[...]
CELL_DATA 9992
FIELD ele_resp_24.000000 1
Sostenimiento 6 9992 float
-147800.973154 -421483.226667 -142321.049917 -6128.222854 0.505778 0.0
-144057.404464 -409525.448334 -138395.713236 -5076.748049 0.503703 0.0
-138041.670117 -397442.626128 -133871.074061 -4998.186234 0.506190 0.0
-133836.111692 -385917.193867 -129938.326408 -4222.647282 0.505385 0.0
-129954.402088 -375937.303940 -126472.926525 -3104.431124 0.505144 0.0
-125006.381811 -364339.365951 -122336.436923 -2414.660572 0.505898 0.0
-119036.842464 -351481.995365 -117629.709457 -2024.216070 0.507958 0.0
-113021.668817 -338425.402559 -112898.107650 -2213.136852 0.510072 0.0
-107748.708050 -325730.295413 -108750.597430 -2391.793888 0.510215 0.0
-102373.254027 -312775.174764 -104469.706063 -2771.813919 0.510495 0.0
-97203.691428 -299549.407041 -100177.314644 -3352.745645 0.509974 0.0
-92290.093695 -286241.974617 -95829.260150 -3961.207348 0.508837 0.0
-87537.968053 -273035.530358 -91499.913191 -4671.711135 0.507396 0.0
-82232.419495 -259222.437692 -86708.594457 -4779.411187 0.507128 0.0
-77879.141286 -246157.937142 -82304.562912 -5192.745945 0.504844 0.0
-73441.985159 -232645.408062 -77606.008511 -5439.362606 0.502412 0.0
-64998.276727 -204472.617618 -68053.049067 -5713.452162 0.493174 0.0
-69334.453391 -218969.252403 -73019.642360 -5737.791509 0.498119 0.0
-132920.116137 -398666.350018 -132928.692428 25.745445 0.517551 0.0
-132920.619196 -398637.302504 -132916.677565 82.026048 0.517534 0.0
-132966.862232 -398681.788916 -132936.388931 147.560201 0.517478 0.0
-133033.791918 -398804.889934 -132979.552733 182.330727 0.517443 0.0
-133103.906409 -398940.682884 -133024.610030 204.057817 0.517415 0.0
-133171.819912 -399085.240568 -133070.408327 220.877383 0.517401 0.0
-133249.930497 -399222.987148 -133115.387381 229.592293 0.517362 0.0
-133323.531029 -399347.708235 -133164.185996 190.971371 0.517308 0.0
-133304.597536 -399289.340942 -133148.484619 132.571098 0.517295 0.0
-133252.441886 -399233.191707 -133121.408398 120.543893 0.517360 0.0
-133217.383899 -399244.992349 -133115.594062 122.058577 0.517443 0.0
-133186.364025 -399217.520456 -133100.971120 163.778716 0.517487 0.0
-133205.993341 -399139.464738 -133086.364520 221.742395 0.517383 0.0
-133292.905113 -399035.603547 -133082.127165 238.664460 0.517116 0.0
-133413.010974 -398972.956372 -133096.491837 181.691056 0.516811 0.0
-133514.768496 -398930.802240 -133111.392684 81.844111 0.516562 0.0
-133613.941350 -398919.733110 -133133.418615 -11.120403 0.516344 0.0
-67783.488582 -204840.374176 -68331.362468 -35.345632 0.483459 0.0
-67792.435974 -204948.247109 -68361.432794 -42.061909 0.483593 0.0
-67759.289155 -204983.282389 -68362.713263 39.450674 0.483769 0.0
-67701.539877 -204908.477935 -68330.707582 157.633132 0.483865 0.0
-67643.417223 -204753.359472 -68278.780855 286.023470 0.483837 0.0
-67562.083499 -204489.987596 -68194.339292 402.292717 0.483725 0.0
-67442.805611 -204123.281020 -68074.649612 440.506125 0.483589 0.0
-67379.719646 -203577.129060 -67924.066032 349.023279 0.482955 0.0
-67355.503913 -202855.014363 -67738.470059 317.803746 0.481897 0.0
-67239.522472 -202559.943563 -67637.223393 77.665635 0.481855 0.0
-67275.239376 -201454.054831 -67370.426059 121.541186 0.479953 0.0
-67069.315253 -202902.595551 -67683.994582 73.045017 0.483030 0.0
-67003.331957 -203571.996416 -67836.738214 -120.459391 0.484335 0.0
-66957.947458 -204328.463023 -68017.112084 2.636428 0.485692 0.0
-67149.722864 -204502.505265 -68110.318799 190.401393 0.485240 0.0
-67410.626250 -204458.351674 -68165.848753 375.019981 0.484190 0.0
-67547.132755 -204511.230277 -68215.911771 488.691759 0.483758 0.0
-67565.260433 -204578.361180 -68240.977950 533.717287 0.483786 0.0
-67537.780660 -204604.813384 -68244.328865 521.042724 0.483919 0.0
-133715.679050 -398942.878139 -133164.639297 -89.169167 0.516149 0.0
-67507.142229 -204617.937785 -68243.203321 480.743873 0.484044 0.0
-133819.019176 -398961.845207 -133195.216096 -133.337944 0.515947 0.0
-67478.686703 -204652.656745 -68249.512128 441.663779 0.484190 0.0
-133951.136612 -398988.716311 -133234.963231 -151.837249 0.515690 0.0
-67431.149561 -204681.235674 -68251.411798 453.818150 0.484393 0.0
-134108.185282 -399023.765787 -133282.987767 -177.301957 0.515388 0.0
-67381.713818 -204711.083316 -68252.615485 489.460869 0.484609 0.0
-134299.308494 -399089.787481 -133347.273994 -219.836351 0.515040 0.0
-67318.992338 -204765.613543 -68261.867535 552.489247 0.484899 0.0
-134512.404972 -399182.111395 -133423.629092 -292.598741 0.514668 0.0
-67269.325421 -204794.056888 -68270.177913 673.869048 0.485096 0.0
-134747.954007 -399297.336466 -133511.322618 -389.402305 0.514268 0.0
-67262.061867 -204624.860926 -68240.562138 838.046718 0.484823 0.0
-135010.035818 -399455.502478 -133616.384574 -510.000464 0.513848 0.0
-67359.681651 -204276.419511 -68190.576291 878.422395 0.483872 0.0
-135291.533182 -399641.963059 -133733.374060 -650.640129 0.513411 0.0
-67467.926369 -204099.183904 -68188.559377 689.901874 0.483129 0.0
-135605.529656 -399891.613803 -133874.285865 -805.644220 0.512960 0.0
-67504.979908 -204457.499197 -68351.041921 409.286825 0.483355 0.0
-135928.368640 -400137.502938 -134016.467894 -988.658339 0.512489 0.0
-67333.132640 -204889.153761 -68410.383220 265.617094 0.484692 0.0
-136237.158904 -400355.055247 -134148.053538 -1191.566393 0.512027 0.0
-67208.550529 -205484.485192 -68572.310645 238.607302 0.485963 0.0
-136575.248919 -400643.483618 -134304.683134 -1403.565965 0.511563 0.0
-67130.008345 -206074.306827 -68759.003048 231.525239 0.487008 0.0
-136944.937136 -401012.432824 -134489.342490 -1645.530668 0.511102 0.0
-67158.174968 -206762.036698 -69052.400007 214.772406 0.487638 0.0
-67142.391659 -206975.860824 -69146.839529 164.156303 0.487897 0.0
-137340.891720 -401407.527765 -134687.104871 -1887.773807 0.510610 0.0
-67227.220883 -207116.198277 -69283.556634 14.291327 0.487560 0.0
-137795.140029 -401851.110379 -134911.562602 -2118.770955 0.510040 0.0
-67127.094443 -207184.542209 -69357.109984 -299.621050 0.487806 0.0
-138347.593973 -402405.508628 -135188.275650 -2326.796343 0.509358 0.0
-66653.184394 -207028.911164 -69264.763066 -911.996720 0.489183 0.0
-139027.722369 -403177.768743 -135551.372778 -2532.986330 0.508594 0.0
-66131.437796 -206154.380346 -69123.802828 -2175.547428 0.489326 0.0
-139885.089948 -404287.473747 -136043.140924 -2806.784400 0.507748 0.0
-65571.326834 -205727.779978 -68885.745103 -3150.483866 0.490960 0.0
-65248.478162 -205336.683928 -68623.420283 -4324.927218 0.492164 0.0
-140889.142816 -405867.183025 -136689.081460 -3281.754926 0.507001 0.0
-141983.941933 -408827.059481 -137702.750353 -3764.125664 0.507178 0.0
-143397.815410 -410742.488035 -138535.075861 -3850.767506 0.505865 0.0
-145260.079729 -412226.217019 -139371.574187 -4855.205902 0.503424 0.0
-125680.405563 -377129.374392 -125752.763037 25.519204 0.515354 0.0
-74939.643422 -226541.990269 -75540.513954 -20.472311 0.490248 0.0
-118441.846993 -355609.295096 -118591.328977 26.591613 0.512908 0.0
-82128.670210 -248199.057728 -82744.800818 -8.122575 0.495836 0.0
-111171.462387 -334130.366274 -111429.665676 29.236155 0.510298 0.0
-89355.815106 -269756.772899 -89938.076658 11.217230 0.500384 0.0
-103892.180408 -312695.104335 -104275.154343 23.745666 0.507436 0.0
-96617.575750 -291246.749375 -97115.830003 17.721306 0.504172 0.0
-70064.454197 -220238.610062 -73641.754492 -4441.224323 0.496537 0.0
-74609.069956 -234277.560382 -78258.922522 -4405.673844 0.500446 0.0
-84032.450038 -261666.901417 -87540.811509 -3558.381060 0.504803 0.0
-79109.022613 -248057.181429 -82901.921642 -3929.895888 0.503425 0.0
-88465.839352 -274510.628007 -91870.716084 -3205.883500 0.506626 0.0
-92978.710922 -285739.489758 -95670.215236 -3105.337453 0.506630 0.0
-97952.333667 -298687.204698 -99897.872231 -2668.485708 0.507450 0.0
-103341.370904 -312739.931407 -104536.959478 -2353.108207 0.508214 0.0
-108350.059511 -325162.146306 -108633.962529 -2114.803472 0.508361 0.0
-113028.129973 -336366.064720 -112245.898754 -1834.860809 0.508340 0.0
-118517.333469 -348226.182711 -116685.879045 -1713.150045 0.506156 0.0
-123666.665341 -359625.717527 -120823.095735 -2112.753784 0.504695 0.0
-128251.607532 -370241.606799 -124623.303565 -2742.283888 0.503902 0.0
-131984.857542 -379443.069884 -127856.981875 -2580.646634 0.503725 0.0
-136053.023847 -388408.005957 -131115.257451 -2280.384393 0.502651 0.0
-140557.527292 -399157.567043 -134928.773565 -3718.331519 0.502306 0.0
-125704.777003 -377187.682563 -125771.940533 91.549548 0.515352 0.0
-74993.310729 -226660.600590 -75584.773922 -6.820748 0.490229 0.0
-74972.140946 -226628.103937 -75571.880172 58.113020 0.490254 0.0
-118494.124053 -355787.472598 -118647.041162 80.405898 0.512950 0.0
-111237.835331 -334317.769575 -111491.532037 46.506668 0.510318 0.0
-103966.984053 -312835.971464 -104328.357258 32.239226 0.507386 0.0
-96720.923437 -291407.832095 -97181.898042 25.991092 0.504062 0.0
-82215.066142 -248332.795644 -82799.899308 8.115623 0.495734 0.0
-89461.181989 -269924.950254 -90002.146098 16.414400 0.500282 0.0
-70741.640617 -221708.070528 -74110.813576 -3304.776669 0.496130 0.0
-125820.721893 -377464.770212 -125867.225678 134.229729 0.515336 0.0
-125967.332406 -377882.943178 -126004.286822 157.007313 0.515375 0.0
-126127.961217 -378364.565753 -126159.435204 187.133875 0.515438 0.0
-126270.395112 -378788.813377 -126294.802042 200.426711 0.515494 0.0
-126408.793768 -379165.296694 -126416.167049 221.411082 0.515521 0.0
-126526.726381 -379405.868312 -126497.979788 227.638239 0.515478 0.0
-126467.777301 -379214.158853 -126426.760324 200.701821 0.515460 0.0
-126322.741926 -378844.397831 -126287.932249 144.897442 0.515485 0.0
-126199.906099 -378642.358982 -126201.389235 146.728403 0.515595 0.0
-126116.978391 -378484.405544 -126150.345984 209.464332 0.515629 0.0
-126095.019525 -378217.485508 -126078.126258 316.594168 0.515451 0.0
-74887.462944 -226389.583124 -75491.793362 163.793788 0.490206 0.0
-72122.146272 -224219.685406 -75023.303689 -2111.608324 0.494797 0.0
-74147.611723 -228432.977790 -76413.759005 -875.968913 0.494057 0.0
-75050.119216 -229616.119457 -76806.497351 -368.367812 0.492940 0.0
-75074.029066 -229207.688976 -76609.639762 3.821439 0.492552 0.0
-74838.130339 -228499.718458 -76285.513092 126.141598 0.492605 0.0
-74650.724607 -227852.643555 -76003.608760 224.188516 0.492538 0.0
-74614.850277 -227180.835764 -75765.598728 289.124329 0.491878 0.0
-74672.886559 -226585.639186 -75584.849464 312.485381 0.490960 0.0
-74753.375612 -226092.851234 -75448.823229 350.631480 0.490071 0.0
-74836.475412 -225788.331586 -75369.764829 457.070679 0.489417 0.0
-74824.718773 -225668.449809 -75321.331161 622.231704 0.489335 0.0
-74765.273329 -225821.717321 -75335.216214 743.153032 0.489791 0.0
-74688.392838 -226055.079496 -75370.147835 746.675071 0.490401 0.0
-74646.804206 -226215.363689 -75396.101130 679.021895 0.490780 0.0
-74635.472472 -226231.156901 -75392.739826 596.004355 0.490851 0.0
-74662.303933 -226213.452418 -75390.113048 530.538749 0.490744 0.0
-74689.629344 -226195.258376 -75390.858611 471.408569 0.490626 0.0
-74701.138958 -226188.666051 -75392.647823 470.108556 0.490575 0.0
-74706.999610 -226169.957531 -75388.826417 499.117759 0.490531 0.0
-74721.840076 -226171.324565 -75394.695713 534.975967 0.490478 0.0
-74736.037160 -226164.467790 -75396.796850 540.590838 0.490419 0.0
-74708.018576 -226012.261477 -75352.516696 480.664234 0.490294 0.0
-74513.874731 -225534.115773 -75186.441208 277.551442 0.490273 0.0
-74126.242499 -224862.285828 -74923.368376 69.529315 0.490649 0.0
-73705.241222 -223991.558328 -74601.900709 55.448979 0.490861 0.0
-73469.229303 -221993.110288 -74044.448651 144.639217 0.488796 0.0
-73157.129403 -221319.790690 -73799.033343 -5.687229 0.488909 0.0
-72683.559467 -218833.344084 -73056.764294 215.028938 0.486944 0.0
-73427.318735 -221274.918311 -73853.924320 362.197342 0.487904 0.0
-73952.044815 -221668.062523 -74081.381408 187.381893 0.486643 0.0
-74137.950132 -223872.830632 -74678.593383 207.405095 0.489189 0.0
-74437.735221 -224734.652748 -74968.081404 440.027002 0.489394 0.0
-74793.162609 -225999.177651 -75371.688768 277.092325 0.489973 0.0
-74667.766965 -225457.384652 -75205.521555 388.380628 0.489634 0.0
-138162.843832 -394957.433356 -133280.069279 -3217.803989 0.503746 0.0
-136018.939878 -391584.503175 -131900.860745 -2832.646036 0.505395 0.0
-133932.709982 -386862.576521 -130198.821626 -2754.568388 0.505852 0.0
-132505.532662 -383276.177716 -128945.427595 -2242.631898 0.505844 0.0
-131351.044577 -381476.132957 -128206.794383 -1943.153219 0.506783 0.0
-130655.234213 -380481.816656 -127784.262717 -1744.870720 0.507431 0.0
-130180.517166 -380188.476634 -127592.248450 -1567.954274 0.508202 0.0
-129837.097864 -380074.791893 -127477.972439 -1416.436661 0.508845 0.0
-129545.317605 -379926.003890 -127367.830374 -1233.296019 0.509346 0.0
-129249.431481 -379746.072136 -127248.875904 -1041.662090 0.509832 0.0
-128970.007584 -379596.700784 -127141.677092 -846.541639 0.510310 0.0
-128702.393556 -379462.529794 -127041.230838 -684.829432 0.510777 0.0
-128395.751084 -379220.668342 -126904.104857 -545.502292 0.511240 0.0
-128077.031267 -378890.859725 -126741.972748 -417.427097 0.511656 0.0
-127779.264181 -378567.664013 -126586.732049 -295.380379 0.512033 0.0
-127488.852288 -378278.248244 -126441.775133 -192.391406 0.512424 0.0
-127232.109412 -378042.815898 -126318.731327 -111.916755 0.512789 0.0
-126996.820889 -377844.537015 -126210.339476 -51.248567 0.513138 0.0
-126802.278988 -377748.565074 -126137.711015 -13.485572 0.513486 0.0
-126653.719510 -377743.685416 -126099.351231 -3.381993 0.513810 0.0
-126556.798936 -377798.470568 -126088.817376 -2.573174 0.514071 0.0
-126513.085519 -377910.441020 -126105.881635 24.017945 0.514263 0.0
-126464.440747 -378015.064512 -126119.876315 84.935304 0.514460 0.0
-126397.566279 -378083.295846 -126120.215531 166.054394 0.514666 0.0
-126325.060348 -378085.012192 -126102.518135 244.819414 0.514828 0.0
-126202.372110 -378082.662813 -126071.258731 329.220460 0.515099 0.0
-132808.208979 -380116.477264 -128231.171579 -2789.372861 0.502549 0.0
-129229.705515 -372498.771977 -125432.119391 -1974.437777 0.503678 0.0
-75738.116931 -236772.499327 -79193.012506 -3341.595032 0.499679 0.0
-80741.571747 -249490.181843 -83516.349383 -3133.012559 0.500211 0.0
-85607.932974 -263888.674496 -88287.285367 -2697.852620 0.503011 0.0
-78110.804546 -241701.795934 -80926.954890 -2418.730947 0.498445 0.0
-90742.044594 -277999.745709 -93085.616137 -2573.137145 0.504407 0.0
-123685.648443 -359462.387928 -120787.009111 -1654.839587 0.504481 0.0
-118148.596940 -346074.200264 -116055.699301 -1648.910695 0.505018 0.0
-113322.351595 -334706.737899 -112007.272356 -1670.211158 0.505816 0.0
-108598.513025 -323703.708988 -108025.726853 -1875.233792 0.506888 0.0
-104177.223268 -312334.504545 -104308.168204 -1943.372478 0.506275 0.0
-99191.514958 -299111.740944 -99914.217913 -1948.687699 0.505319 0.0
-118665.743768 -356257.513465 -118803.722761 99.056682 0.512981 0.0
-111406.669513 -334770.935681 -111644.133292 61.782949 0.510343 0.0
-104080.711119 -313086.853428 -104417.214623 24.779854 0.507351 0.0
-96774.651353 -291454.304657 -97204.279498 18.656616 0.503970 0.0
-89469.434053 -269832.510445 -89978.588905 40.172971 0.500153 0.0
-82191.926624 -248205.238564 -82760.842589 62.506654 0.495646 0.0
-82100.410371 -247840.389370 -82646.943321 134.857242 0.495464 0.0
-82001.095698 -247329.847074 -82495.679196 217.640923 0.495115 0.0
-118839.961510 -356791.490289 -118975.251721 118.564382 0.513066 0.0
-119004.218271 -357343.006920 -119148.273426 130.191972 0.513191 0.0
-119167.503983 -357865.067374 -119312.157268 188.428889 0.513295 0.0
-119295.411153 -358214.992553 -119424.066107 199.569954 0.513325 0.0
-119376.684330 -358298.167799 -119457.425930 272.068912 0.513226 0.0
-119363.065541 -358055.045198 -119385.711227 277.252120 0.513053 0.0
-119228.723501 -357674.240734 -119249.236266 191.912706 0.513037 0.0
-119002.853874 -357378.307600 -119110.299134 126.030556 0.513313 0.0
-81890.318770 -246689.487165 -82307.625334 301.038807 0.494636 0.0
-129506.248056 -374200.825916 -125926.768511 -2209.047904 0.504563 0.0
-118816.669338 -357140.294834 -118992.313429 275.913245 0.513556 0.0
-118860.723221 -356989.069908 -118952.519875 429.855237 0.513342 0.0
-119171.317173 -357235.869661 -119101.796691 382.900619 0.512822 0.0
-119340.152261 -357614.153264 -119238.576364 238.580123 0.512768 0.0
-119384.760425 -357786.820825 -119292.895295 233.501703 0.512819 0.0
-119384.696300 -357366.489452 -119187.796421 209.034370 0.512441 0.0
-119327.705931 -356953.613281 -119070.329786 140.066638 0.512201 0.0
-119287.904140 -356658.468038 -118986.593027 123.144366 0.512028 0.0
-119338.556467 -356515.356489 -118963.478222 135.343718 0.511780 0.0
-119483.089698 -356532.723239 -119003.953217 137.904189 0.511460 0.0
-119677.736810 -356656.790839 -119083.631895 96.787222 0.511119 0.0
-119917.209822 -356919.578690 -119209.197111 44.313191 0.510800 0.0
-120182.098078 -357257.628609 -119359.931654 -20.916301 0.510491 0.0
-120470.385074 -357605.121796 -119518.876700 -101.374671 0.510137 0.0
-120737.374333 -357877.396619 -119653.692721 -202.122004 0.509766 0.0
-120996.557206 -358098.354692 -119773.727957 -291.746839 0.509368 0.0
-121276.719799 -358321.174304 -119899.473508 -394.402725 0.508924 0.0
-121523.472181 -358472.236914 -119998.927256 -533.448684 0.508495 0.0
-121754.288716 -358571.343798 -120081.408111 -686.186303 0.508056 0.0
-121962.741530 -358609.717162 -120143.114656 -847.038420 0.507616 0.0
-122100.355778 -358494.530314 -120148.721506 -969.746275 0.507200 0.0
-122268.451793 -358214.222577 -120120.668575 -996.225636 0.506563 0.0
-122612.200504 -357975.264116 -120146.866138 -1189.999214 0.505567 0.0
-123274.449939 -359151.002597 -120606.363117 -1510.250151 0.505129 0.0
-124847.912814 -362054.108619 -121725.505341 -1655.009853 0.504179 0.0
-127341.401505 -368959.436024 -124075.209400 -2024.022626 0.504744 0.0
-81685.608305 -245844.225048 -82044.274338 339.951173 0.494189 0.0
-81244.795862 -245122.345169 -81752.458309 199.547103 0.494661 0.0
-80204.335585 -240489.089286 -80333.725118 285.694762 0.491885 0.0
-79172.195865 -239207.135975 -79759.829883 703.534494 0.493547 0.0
-78730.643876 -236344.279488 -78932.821134 266.779959 0.491114 0.0
-78539.461318 -238177.489508 -79342.420988 -37.056889 0.494239 0.0
-79371.456157 -240285.521631 -80072.274737 -73.476096 0.494345 0.0
-80698.472021 -243905.522308 -81304.172846 114.923635 0.494843 0.0
-81412.277809 -246168.505323 -82042.378755 109.133277 0.495528 0.0
-82042.080376 -247516.942088 -82532.838643 307.782625 0.495279 0.0
-82199.142467 -248427.788802 -82791.522977 506.175819 0.495986 0.0
-82111.418613 -248195.912146 -82706.894416 491.068819 0.495977 0.0
-82048.164195 -247926.605336 -82619.359071 522.910427 0.495842 0.0
-82006.391563 -247861.900023 -82584.194295 504.952210 0.495913 0.0
-82038.788022 -247946.943799 -82609.940466 471.041430 0.495928 0.0
-82097.181183 -248058.108064 -82646.038787 487.849251 0.495902 0.0
-82104.166893 -248072.993570 -82644.613720 529.814966 0.495918 0.0
-82097.181703 -248016.970205 -82625.184951 592.189694 0.495879 0.0
-82125.531545 -247921.505657 -82604.044334 630.547891 0.495676 0.0
-82198.152600 -247801.328785 -82584.693267 640.570816 0.495307 0.0
-82276.247619 -247661.414114 -82568.111347 615.261345 0.494878 0.0
-82330.327553 -247557.859008 -82557.159117 525.235015 0.494564 0.0
-82344.865785 -247553.746318 -82562.468413 437.028056 0.494503 0.0
-82314.601480 -247705.840045 -82607.342503 359.528249 0.494759 0.0
-82267.003323 -248015.034287 -82692.630190 331.086888 0.495262 0.0
-82210.797883 -248498.654366 -82837.463372 312.042827 0.495972 0.0
-82234.747323 -249060.941423 -83027.302599 174.130548 0.496513 0.0
-82514.480251 -249647.152408 -83302.023236 19.310331 0.496230 0.0
-83158.429264 -251306.284815 -83934.764628 120.535906 0.496180 0.0